LAMMPS (23 Jun 2017)
OMP_NUM_THREADS environment is not set. Defaulting to 1 thread. (../comm.cpp:90)
  using 1 OpenMP thread(s) per MPI task
# ANP_oxidation
units           real
## Boundary condition
dimension       3
boundary        p p p
processors      * * *
# Create geometry from a structure file
atom_style      charge
read_data       Scripts/CVD/data_small.ANP
  orthogonal box = (0 0 0) to (47.09 45.57 100)
  1 by 1 by 1 MPI processor grid
  reading atoms ...
  1359 atoms
# Apply ReaxFF potentials
pair_style      reax/c Scripts/CVD/lmp_control
pair_coeff      * * Scripts/CVD/ffield.reax C H O S Mo Ni Al
# Boost  neibors (default = 2000)
#neigh_modify page 1000000  one  10000
neighbor        2 bin
neigh_modify    every 10 delay 0 check no
# group
group 2 type 3
864 atoms in group 2
group 3 type 4
207 atoms in group 3
group 4 type 5 
288 atoms in group 4
velocity        2  create   4000.0  2000000  rot yes dist gaussian
velocity        3  create   4000.0  2000000  rot yes dist gaussian
velocity        4  create   4000.0  2000000  rot yes dist gaussian
fix             1  all  qeq/reax  1  0.0  10.0  1e-6  reax/c
fix             2  2  nvt temp  4000.0  4000.0  25.0
fix             3  3  nvt temp 4000.0  4000.0  25.0
fix             4  4  nvt temp 4000.0  4000.0  25.0
fix             5  4 spring/self 20.0
compute         pe  all  pe/atom
compute         ke  all  ke/atom
variable        temp atom c_ke/(0.0019872041*1.5)
# Time step
timestep        1.5
# Output setting 
thermo          10
thermo_style    custom step pe ke etotal evdwl ecoul press temp vol density
thermo_modify   lost warn format float %15.14g
#dump            1 all custom 100 Scripts/CVD/CVD_3000K.dump id type q x y z c_pe c_ke v_temp
#restart         500000  restart
#dump_modify     1 sort id 
#minimize        1.0e-7 1.0e-6 5000 10000
#             M  K  Z
# Run MD      |  |  |
run           0
Neighbor list info ...
  update every 10 steps, delay 0 steps, check no
  max neighbors/atom: 2000, page size: 100000
  master list distance cutoff = 12
  ghost atom cutoff = 12
  binsize = 6, bins = 8 8 17
  2 neighbor lists, perpetual/occasional/extra = 2 0 0
  (1) pair reax/c, perpetual
      attributes: half, newton off, ghost
      pair build: half/bin/newtoff/ghost
      stencil: half/ghost/bin/3d/newtoff
      bin: standard
  (2) fix qeq/reax, perpetual, copy from (1)
      attributes: half, newton off, ghost
      pair build: copy
      stencil: none
      bin: none
Per MPI rank memory allocation (min/avg/max) = 63.92 | 63.92 | 63.92 Mbytes
Step PotEng KinEng TotEng E_vdwl E_coul Press Temp Volume Density 
       0 -144543.48400167   16167.9137112 -128375.57029047 -105601.02164882 -38942.462352843 -1454.1226945355 3994.1089837997       214589.13 0.37213336491546 
Loop time of 0 on 1 procs for 0 steps with 1359 atoms

0.0% CPU use with 1 MPI tasks x 1 OpenMP threads

MPI task timing breakdown:
Section |  min time  |  avg time  |  max time  |%varavg| %total
---------------------------------------------------------------
Pair    | 0          | 0          | 0          |   0.0 |  0.00
Neigh   | 0          | 0          | 0          |   0.0 |  0.00
Comm    | 0          | 0          | 0          |   0.0 |  0.00
Output  | 0          | 0          | 0          |   0.0 |  0.00
Modify  | 0          | 0          | 0          |   0.0 |  0.00
Other   |            | 0          |            |       |  0.00

Nlocal:    1359 ave 1359 max 1359 min
Histogram: 1 0 0 0 0 0 0 0 0 0
Nghost:    1764 ave 1764 max 1764 min
Histogram: 1 0 0 0 0 0 0 0 0 0
Neighs:    171903 ave 171903 max 171903 min
Histogram: 1 0 0 0 0 0 0 0 0 0

Total # of neighbors = 171903
Ave neighs/atom = 126.492
Neighbor list builds = 0
Dangerous builds not checked
run 1 pre no post no
Step PotEng KinEng TotEng E_vdwl E_coul Press Temp Volume Density 
       0 -144543.48400167   16167.9137112 -128375.57029047 -105601.02164882 -38942.462352843 -1454.1226945355 3994.1089837997       214589.13 0.37213336491546 
       1 -144346.40718398  16149.50413309 -128196.90305089 -105395.33883011 -38951.068353873 -3609.6484711881 3989.5610957648       214589.13 0.37213336491546 
Loop time of 0.0688159 on 1 procs for 1 steps with 1359 atoms

run 1 pre no post no
Step PotEng KinEng TotEng E_vdwl E_coul Press Temp Volume Density 
       1 -144346.40718398  16149.50413309 -128196.90305089 -105395.33883011 -38951.068353873 -3609.6484711881 3989.5610957648       214589.13 0.37213336491546 
       2 -144062.97508113 16092.718551356 -127970.25652977 -105095.30429804 -38967.670783095 -45.81995027812 3975.5328292732       214589.13 0.37213336491546 
Loop time of 0.0690088 on 1 procs for 1 steps with 1359 atoms

run 1 pre no post no
Step PotEng KinEng TotEng E_vdwl E_coul Press Temp Volume Density 
       2 -144062.97508113 16092.718551356 -127970.25652977 -105095.30429804 -38967.670783095 -45.81995027812 3975.5328292732       214589.13 0.37213336491546 
       3 -143753.25983477 15901.861424348 -127851.39841042 -104777.33179411 -38975.928040653 -101.28736313877 3928.3836312243       214589.13 0.37213336491546 
Loop time of 0.0658219 on 1 procs for 1 steps with 1359 atoms

run 1 pre no post no
Step PotEng KinEng TotEng E_vdwl E_coul Press Temp Volume Density 
       3 -143753.25983477 15901.861424348 -127851.39841042 -104777.33179411 -38975.928040653 -101.28736313877 3928.3836312243       214589.13 0.37213336491546 
       4 -143366.08017516 15769.678155301 -127596.40201986 -104395.97439693 -38970.105778239 -2536.0124094743 3895.7291779757       214589.13 0.37213336491546 
Loop time of 0.060837 on 1 procs for 1 steps with 1359 atoms

run 1 pre no post no
Step PotEng KinEng TotEng E_vdwl E_coul Press Temp Volume Density 
       4 -143366.08017516 15769.678155301 -127596.40201986 -104395.97439693 -38970.105778239 -2536.0124094743 3895.7291779757       214589.13 0.37213336491546 
       5 -143365.36115351 15728.687321263 -127636.67383224 -104402.91340303 -38962.447750473 1479.9694460652 3885.6028338222       214589.13 0.37213336491546 
Loop time of 0.0618351 on 1 procs for 1 steps with 1359 atoms

run 1 pre no post no
Step PotEng KinEng TotEng E_vdwl E_coul Press Temp Volume Density 
       5 -143365.36115351 15728.687321263 -127636.67383224 -104402.91340303 -38962.447750473 1479.9694460652 3885.6028338222       214589.13 0.37213336491546 
       6 -143095.36500579  15571.57463919 -127523.7903666 -104156.05558688 -38939.309418905 751.10784154101 3846.7898375294       214589.13 0.37213336491546 
Loop time of 0.0627201 on 1 procs for 1 steps with 1359 atoms

run 1 pre no post no
Step PotEng KinEng TotEng E_vdwl E_coul Press Temp Volume Density 
       6 -143095.36500579  15571.57463919 -127523.7903666 -104156.05558688 -38939.309418905 751.10784154101 3846.7898375294       214589.13 0.37213336491546 
       7 -142643.15764626 15347.511883955 -127295.6457623 -103734.1168257 -38909.040820558 -310.69382025272 3791.4375465903       214589.13 0.37213336491546 
Loop time of 0.060837 on 1 procs for 1 steps with 1359 atoms

run 1 pre no post no
Step PotEng KinEng TotEng E_vdwl E_coul Press Temp Volume Density 
       7 -142643.15764626 15347.511883955 -127295.6457623 -103734.1168257 -38909.040820558 -310.69382025272 3791.4375465903       214589.13 0.37213336491546 
       8 -142424.28177517 15334.038339923 -127090.24343525 -103551.1132902 -38873.168484968 500.46866603911 3788.1090526224       214589.13 0.37213336491546 
Loop time of 0.064827 on 1 procs for 1 steps with 1359 atoms

run 1 pre no post no
Step PotEng KinEng TotEng E_vdwl E_coul Press Temp Volume Density 
       8 -142424.28177517 15334.038339923 -127090.24343525 -103551.1132902 -38873.168484968 500.46866603911 3788.1090526224       214589.13 0.37213336491546 
       9 -142511.13842144 15469.408395854 -127041.73002559 -103678.80806875 -38832.330352695 -2101.9642379246 3821.5507672548       214589.13 0.37213336491546 
Loop time of 0.0630581 on 1 procs for 1 steps with 1359 atoms

run 1 pre no post no
Step PotEng KinEng TotEng E_vdwl E_coul Press Temp Volume Density 
       9 -142511.13842144 15469.408395854 -127041.73002559 -103678.80806875 -38832.330352695 -2101.9642379246 3821.5507672548       214589.13 0.37213336491546 
      10 -142512.28674539 15645.085445051 -126867.20130034 -103713.23393422 -38799.052811164 69.976385353538 3864.9498905418       214589.13 0.37213336491546 
Loop time of 0.0718081 on 1 procs for 1 steps with 1359 atoms

run 1 pre no post no
Step PotEng KinEng TotEng E_vdwl E_coul Press Temp Volume Density 
      10 -142512.28674539 15645.085445051 -126867.20130034 -103713.23393422 -38799.052811164 69.976385353538 3864.9498905418       214589.13 0.37213336491546 
      11 -142245.32111951 15706.812164393 -126538.50895512 -103481.59009811 -38763.731021408 596.86874061564 3880.1988118725       214589.13 0.37213336491546 
Loop time of 0.0638571 on 1 procs for 1 steps with 1359 atoms

run 1 pre no post no
Step PotEng KinEng TotEng E_vdwl E_coul Press Temp Volume Density 
      11 -142245.32111951 15706.812164393 -126538.50895512 -103481.59009811 -38763.731021408 596.86874061564 3880.1988118725       214589.13 0.37213336491546 
      12 -142251.18145721 15794.590566567 -126456.59089064 -103523.0693606 -38728.112096604 215.90423547106 3901.8835209184       214589.13 0.37213336491546 
Loop time of 0.0618341 on 1 procs for 1 steps with 1359 atoms

run 1 pre no post no
Step PotEng KinEng TotEng E_vdwl E_coul Press Temp Volume Density 
      12 -142251.18145721 15794.590566567 -126456.59089064 -103523.0693606 -38728.112096604 215.90423547106 3901.8835209184       214589.13 0.37213336491546 
      13 -141919.59263285 15655.582929426 -126264.00970342 -103225.64525841 -38693.947374437 -1635.300556303 3867.5431810183       214589.13 0.37213336491546 
Loop time of 0.0628319 on 1 procs for 1 steps with 1359 atoms

run 1 pre no post no
Step PotEng KinEng TotEng E_vdwl E_coul Press Temp Volume Density 
      13 -141919.59263285 15655.582929426 -126264.00970342 -103225.64525841 -38693.947374437 -1635.300556303 3867.5431810183       214589.13 0.37213336491546 
      14 -141632.89522568 15569.505898069 -126063.38932761 -102968.12369124 -38664.771534439 -2261.1105501846  3846.278777312       214589.13 0.37213336491546 
Loop time of 0.0608659 on 1 procs for 1 steps with 1359 atoms

run 1 pre no post no
Step PotEng KinEng TotEng E_vdwl E_coul Press Temp Volume Density 
      14 -141632.89522568 15569.505898069 -126063.38932761 -102968.12369124 -38664.771534439 -2261.1105501846  3846.278777312       214589.13 0.37213336491546 
      15 -141524.34867535 15678.494902079 -125845.85377327 -102882.69799187 -38641.65068348 -3197.470165054 3873.2033371425       214589.13 0.37213336491546 
Loop time of 0.0618329 on 1 procs for 1 steps with 1359 atoms

run 1 pre no post no
Step PotEng KinEng TotEng E_vdwl E_coul Press Temp Volume Density 
      15 -141524.34867535 15678.494902079 -125845.85377327 -102882.69799187 -38641.65068348 -3197.470165054 3873.2033371425       214589.13 0.37213336491546 
      16 -141264.55918946 15665.011909202 -125599.54728026 -102629.32268422 -38635.236505245 -1720.3415153909  3869.872508939       214589.13 0.37213336491546 
Loop time of 0.060837 on 1 procs for 1 steps with 1359 atoms

run 1 pre no post no
Step PotEng KinEng TotEng E_vdwl E_coul Press Temp Volume Density 
      16 -141264.55918946 15665.011909202 -125599.54728026 -102629.32268422 -38635.236505245 -1720.3415153909  3869.872508939       214589.13 0.37213336491546 
      17 -141002.54987581 15581.331040288 -125421.21883553 -102368.69835569 -38633.851520127 -2245.0768875548 3849.2000513623       214589.13 0.37213336491546 
Loop time of 0.0628328 on 1 procs for 1 steps with 1359 atoms

run 1 pre no post no
Step PotEng KinEng TotEng E_vdwl E_coul Press Temp Volume Density 
      17 -141002.54987581 15581.331040288 -125421.21883553 -102368.69835569 -38633.851520127 -2245.0768875548 3849.2000513623       214589.13 0.37213336491546 
      18 -141013.54733516 15743.641560793 -125269.90577436 -102378.3066453 -38635.240689852 1415.5856089981 3889.2971176687       214589.13 0.37213336491546 
Loop time of 0.0618598 on 1 procs for 1 steps with 1359 atoms

run 1 pre no post no
Step PotEng KinEng TotEng E_vdwl E_coul Press Temp Volume Density 
      18 -141013.54733516 15743.641560793 -125269.90577436 -102378.3066453 -38635.240689852 1415.5856089981 3889.2971176687       214589.13 0.37213336491546 
      19 -140657.31330873 15685.183069219 -124972.13023951 -102030.36691376 -38626.946394972 -2055.0797169548 3874.8555768152       214589.13 0.37213336491546 
Loop time of 0.0618341 on 1 procs for 1 steps with 1359 atoms

run 1 pre no post no
Step PotEng KinEng TotEng E_vdwl E_coul Press Temp Volume Density 
      19 -140657.31330873 15685.183069219 -124972.13023951 -102030.36691376 -38626.946394972 -2055.0797169548 3874.8555768152       214589.13 0.37213336491546 
      20 -140461.40707889 15717.078238866 -124744.32884003 -101842.54039906 -38618.866679834 -3013.3878217106 3882.7349350245       214589.13 0.37213336491546 
Loop time of 0.073802 on 1 procs for 1 steps with 1359 atoms

run 1 pre no post no
Step PotEng KinEng TotEng E_vdwl E_coul Press Temp Volume Density 
      20 -140461.40707889 15717.078238866 -124744.32884003 -101842.54039906 -38618.866679834 -3013.3878217106 3882.7349350245       214589.13 0.37213336491546 
      21 -140524.12396656 16006.754826707 -124517.36913985 -101915.28145263 -38608.842513931 -2403.6871198718 3954.2964167692       214589.13 0.37213336491546 
Loop time of 0.061836 on 1 procs for 1 steps with 1359 atoms

run 1 pre no post no
Step PotEng KinEng TotEng E_vdwl E_coul Press Temp Volume Density 
      21 -140524.12396656 16006.754826707 -124517.36913985 -101915.28145263 -38608.842513931 -2403.6871198718 3954.2964167692       214589.13 0.37213336491546 
      22 -140668.06436815 16332.698887221 -124335.36548092 -102073.22080383 -38594.843564313 -1221.393903845  4034.817387104       214589.13 0.37213336491546 
Loop time of 0.0628321 on 1 procs for 1 steps with 1359 atoms

run 1 pre no post no
Step PotEng KinEng TotEng E_vdwl E_coul Press Temp Volume Density 
      22 -140668.06436815 16332.698887221 -124335.36548092 -102073.22080383 -38594.843564313 -1221.393903845  4034.817387104       214589.13 0.37213336491546 
      23 -140490.14847952 16543.049272282 -123947.09920724 -101914.18478643 -38575.963693096 1216.5897793382 4086.7821846483       214589.13 0.37213336491546 
Loop time of 0.0628309 on 1 procs for 1 steps with 1359 atoms

run 1 pre no post no
Step PotEng KinEng TotEng E_vdwl E_coul Press Temp Volume Density 
      23 -140490.14847952 16543.049272282 -123947.09920724 -101914.18478643 -38575.963693096 1216.5897793382 4086.7821846483       214589.13 0.37213336491546 
      24 -140124.05171338 16349.883395311 -123774.16831807 -101574.55287033 -38549.498843047 -2143.3476237389  4039.062634782       214589.13 0.37213336491546 
Loop time of 0.0628328 on 1 procs for 1 steps with 1359 atoms

run 1 pre no post no
Step PotEng KinEng TotEng E_vdwl E_coul Press Temp Volume Density 
      24 -140124.05171338 16349.883395311 -123774.16831807 -101574.55287033 -38549.498843047 -2143.3476237389  4039.062634782       214589.13 0.37213336491546 
      25 -139740.57392883 16321.306872474 -123419.26705635 -101219.3770156 -38521.196913222 -2520.6493365615 4032.0031125315       214589.13 0.37213336491546 
Loop time of 0.06283 on 1 procs for 1 steps with 1359 atoms

run 1 pre no post no
Step PotEng KinEng TotEng E_vdwl E_coul Press Temp Volume Density 
      25 -139740.57392883 16321.306872474 -123419.26705635 -101219.3770156 -38521.196913222 -2520.6493365615 4032.0031125315       214589.13 0.37213336491546 
      26 -139859.27360971 16547.848423825 -123311.42518589 -101369.31656625 -38489.957043465 -840.33272540199  4087.967763359       214589.13 0.37213336491546 
Loop time of 0.060838 on 1 procs for 1 steps with 1359 atoms

run 1 pre no post no
Step PotEng KinEng TotEng E_vdwl E_coul Press Temp Volume Density 
      26 -139859.27360971 16547.848423825 -123311.42518589 -101369.31656625 -38489.957043465 -840.33272540199  4087.967763359       214589.13 0.37213336491546 
      27 -139834.55281898 16694.666962806 -123139.88585618 -101378.71116748 -38455.841651501 -970.8342464152 4124.2377024498       214589.13 0.37213336491546 
Loop time of 0.0628319 on 1 procs for 1 steps with 1359 atoms

run 1 pre no post no
Step PotEng KinEng TotEng E_vdwl E_coul Press Temp Volume Density 
      27 -139834.55281898 16694.666962806 -123139.88585618 -101378.71116748 -38455.841651501 -970.8342464152 4124.2377024498       214589.13 0.37213336491546 
      28 -139755.7960534 16727.486354531 -123028.30969887 -101331.61696072 -38424.179092679 -1489.4944160595 4132.3453797713       214589.13 0.37213336491546 
Loop time of 0.064827 on 1 procs for 1 steps with 1359 atoms

run 1 pre no post no
Step PotEng KinEng TotEng E_vdwl E_coul Press Temp Volume Density 
      28 -139755.7960534 16727.486354531 -123028.30969887 -101331.61696072 -38424.179092679 -1489.4944160595 4132.3453797713       214589.13 0.37213336491546 
      29 -139586.63524675 16841.313718452 -122745.3215283 -101189.30926595 -38397.325980797 -2630.4731654038 4160.4652043177       214589.13 0.37213336491546 
Loop time of 0.0628321 on 1 procs for 1 steps with 1359 atoms

run 1 pre no post no
Step PotEng KinEng TotEng E_vdwl E_coul Press Temp Volume Density 
      29 -139586.63524675 16841.313718452 -122745.3215283 -101189.30926595 -38397.325980797 -2630.4731654038 4160.4652043177       214589.13 0.37213336491546 
      30 -139728.03698729 17099.683055196 -122628.35393209 -101353.18060269 -38374.856384599 285.09826747252    4224.2925668       214589.13 0.37213336491546 
Loop time of 0.074405 on 1 procs for 1 steps with 1359 atoms

run 1 pre no post no
Step PotEng KinEng TotEng E_vdwl E_coul Press Temp Volume Density 
      30 -139728.03698729 17099.683055196 -122628.35393209 -101353.18060269 -38374.856384599 285.09826747252    4224.2925668       214589.13 0.37213336491546 
      31 -139848.86039155 17250.622480184 -122598.23791137 -101499.33852104 -38349.521870516 957.51964738915 4261.5805264045       214589.13 0.37213336491546 
Loop time of 0.060534 on 1 procs for 1 steps with 1359 atoms

run 1 pre no post no
Step PotEng KinEng TotEng E_vdwl E_coul Press Temp Volume Density 
      31 -139848.86039155 17250.622480184 -122598.23791137 -101499.33852104 -38349.521870516 957.51964738915 4261.5805264045       214589.13 0.37213336491546 
      32 -139578.40141491 17119.375031894 -122459.02638301 -101253.73303926 -38324.668375643 -549.37953528375 4229.1572575971       214589.13 0.37213336491546 
Loop time of 0.060837 on 1 procs for 1 steps with 1359 atoms

run 1 pre no post no
Step PotEng KinEng TotEng E_vdwl E_coul Press Temp Volume Density 
      32 -139578.40141491 17119.375031894 -122459.02638301 -101253.73303926 -38324.668375643 -549.37953528375 4229.1572575971       214589.13 0.37213336491546 
      33 -139378.68408038 17070.056457815 -122308.62762257 -101071.17910924 -38307.504971146  1844.546285472 4216.9736349408       214589.13 0.37213336491546 
Loop time of 0.0618351 on 1 procs for 1 steps with 1359 atoms

run 1 pre no post no
Step PotEng KinEng TotEng E_vdwl E_coul Press Temp Volume Density 
      33 -139378.68408038 17070.056457815 -122308.62762257 -101071.17910924 -38307.504971146  1844.546285472 4216.9736349408       214589.13 0.37213336491546 
      34 -138943.81095965 16884.206137569 -122059.60482208 -100664.66582722 -38279.145132423 -1358.1224828561 4171.0613145883       214589.13 0.37213336491546 
Loop time of 0.0648232 on 1 procs for 1 steps with 1359 atoms

run 1 pre no post no
Step PotEng KinEng TotEng E_vdwl E_coul Press Temp Volume Density 
      34 -138943.81095965 16884.206137569 -122059.60482208 -100664.66582722 -38279.145132423 -1358.1224828561 4171.0613145883       214589.13 0.37213336491546 
      35 -138848.51490539 16859.556013907 -121988.95889148 -100598.83504762 -38249.679857771 -1470.4034357098 4164.9717669741       214589.13 0.37213336491546 
Loop time of 0.0638289 on 1 procs for 1 steps with 1359 atoms

run 1 pre no post no
Step PotEng KinEng TotEng E_vdwl E_coul Press Temp Volume Density 
      35 -138848.51490539 16859.556013907 -121988.95889148 -100598.83504762 -38249.679857771 -1470.4034357098 4164.9717669741       214589.13 0.37213336491546 
      36 -138896.08201603  17034.13280358 -121861.94921245 -100669.0016599 -38227.080356136 1408.6017160384 4208.0990829933       214589.13 0.37213336491546 
Loop time of 0.0618351 on 1 procs for 1 steps with 1359 atoms

run 1 pre no post no
Step PotEng KinEng TotEng E_vdwl E_coul Press Temp Volume Density 
      36 -138896.08201603  17034.13280358 -121861.94921245 -100669.0016599 -38227.080356136 1408.6017160384 4208.0990829933       214589.13 0.37213336491546 
      37 -138893.99136057 17141.544252444 -121752.44710812 -100686.18544865 -38207.805911916 2598.2520271799 4234.6339248125       214589.13 0.37213336491546 
Loop time of 0.0648279 on 1 procs for 1 steps with 1359 atoms

run 1 pre no post no
Step PotEng KinEng TotEng E_vdwl E_coul Press Temp Volume Density 
      37 -138893.99136057 17141.544252444 -121752.44710812 -100686.18544865 -38207.805911916 2598.2520271799 4234.6339248125       214589.13 0.37213336491546 
      38 -138544.68246134 17135.947214167 -121408.73524717 -100355.8702661 -38188.812195243 -2390.2313589619 4233.2512367758       214589.13 0.37213336491546 
Loop time of 0.0618351 on 1 procs for 1 steps with 1359 atoms

run 1 pre no post no
Step PotEng KinEng TotEng E_vdwl E_coul Press Temp Volume Density 
      38 -138544.68246134 17135.947214167 -121408.73524717 -100355.8702661 -38188.812195243 -2390.2313589619 4233.2512367758       214589.13 0.37213336491546 
      39 -138830.39714056 17360.567405582 -121469.82973498 -100644.38206302 -38186.015077539 -1102.5994699502 4288.7412363204       214589.13 0.37213336491546 
Loop time of 0.065825 on 1 procs for 1 steps with 1359 atoms

run 1 pre no post no
Step PotEng KinEng TotEng E_vdwl E_coul Press Temp Volume Density 
      39 -138830.39714056 17360.567405582 -121469.82973498 -100644.38206302 -38186.015077539 -1102.5994699502 4288.7412363204       214589.13 0.37213336491546 
      40 -138881.91633941 17625.544586965 -121256.37175244 -100688.57469887 -38193.341640541 501.75291480738 4354.2009956667       214589.13 0.37213336491546 
Loop time of 0.0708098 on 1 procs for 1 steps with 1359 atoms

run 1 pre no post no
Step PotEng KinEng TotEng E_vdwl E_coul Press Temp Volume Density 
      40 -138881.91633941 17625.544586965 -121256.37175244 -100688.57469887 -38193.341640541 501.75291480738 4354.2009956667       214589.13 0.37213336491546 
      41 -138681.57459717 17586.859431261 -121094.71516591 -100477.95682841 -38203.617768763 1771.4562675366 4344.6442445176       214589.13 0.37213336491546 
Loop time of 0.0628319 on 1 procs for 1 steps with 1359 atoms

run 1 pre no post no
Step PotEng KinEng TotEng E_vdwl E_coul Press Temp Volume Density 
      41 -138681.57459717 17586.859431261 -121094.71516591 -100477.95682841 -38203.617768763 1771.4562675366 4344.6442445176       214589.13 0.37213336491546 
      42 -138532.70846832  17512.38896955 -121020.31949877 -100330.57571966 -38202.132748658 3994.6061941551 4326.2471188612       214589.13 0.37213336491546 
Loop time of 0.0628319 on 1 procs for 1 steps with 1359 atoms

run 1 pre no post no
Step PotEng KinEng TotEng E_vdwl E_coul Press Temp Volume Density 
      42 -138532.70846832  17512.38896955 -121020.31949877 -100330.57571966 -38202.132748658 3994.6061941551 4326.2471188612       214589.13 0.37213336491546 
      43 -138571.0689892 17532.374437635 -121038.69455157 -100396.62564386 -38174.443345344 897.86291054776  4331.184313545       214589.13 0.37213336491546 
Loop time of 0.0628331 on 1 procs for 1 steps with 1359 atoms

run 1 pre no post no
Step PotEng KinEng TotEng E_vdwl E_coul Press Temp Volume Density 
      43 -138571.0689892 17532.374437635 -121038.69455157 -100396.62564386 -38174.443345344 897.86291054776  4331.184313545       214589.13 0.37213336491546 
      44 -138588.3275257 17705.061782292 -120883.26574341 -100454.87189168 -38133.45563402  1123.110391524 4373.8448625188       214589.13 0.37213336491546 
Loop time of 0.064827 on 1 procs for 1 steps with 1359 atoms

run 1 pre no post no
Step PotEng KinEng TotEng E_vdwl E_coul Press Temp Volume Density 
      44 -138588.3275257 17705.061782292 -120883.26574341 -100454.87189168 -38133.45563402  1123.110391524 4373.8448625188       214589.13 0.37213336491546 
      45 -138678.90227402 17739.265725581 -120939.63654844 -100592.71343266 -38086.188841363 1093.7417157124 4382.2945783953       214589.13 0.37213336491546 
Loop time of 0.0668211 on 1 procs for 1 steps with 1359 atoms

run 1 pre no post no
Step PotEng KinEng TotEng E_vdwl E_coul Press Temp Volume Density 
      45 -138678.90227402 17739.265725581 -120939.63654844 -100592.71343266 -38086.188841363 1093.7417157124 4382.2945783953       214589.13 0.37213336491546 
      46 -138323.74968416 17589.891093198 -120733.85859096 -100285.68137256 -38038.068311596 17.324315520763 4345.3931839538       214589.13 0.37213336491546 
Loop time of 0.0668249 on 1 procs for 1 steps with 1359 atoms

run 1 pre no post no
Step PotEng KinEng TotEng E_vdwl E_coul Press Temp Volume Density 
      46 -138323.74968416 17589.891093198 -120733.85859096 -100285.68137256 -38038.068311596 17.324315520763 4345.3931839538       214589.13 0.37213336491546 
      47 -138030.88912852 17391.061934638 -120639.82719388 -100032.83955886 -37998.049569663 -687.78155795142  4296.274581354       214589.13 0.37213336491546 
Loop time of 0.064827 on 1 procs for 1 steps with 1359 atoms

run 1 pre no post no
Step PotEng KinEng TotEng E_vdwl E_coul Press Temp Volume Density 
      47 -138030.88912852 17391.061934638 -120639.82719388 -100032.83955886 -37998.049569663 -687.78155795142  4296.274581354       214589.13 0.37213336491546 
      48 -137986.35729043 17263.578253466 -120722.77903696 -100022.23474498 -37964.12254545 -1820.0704105492 4264.7811106843       214589.13 0.37213336491546 
Loop time of 0.0668209 on 1 procs for 1 steps with 1359 atoms

run 1 pre no post no
Step PotEng KinEng TotEng E_vdwl E_coul Press Temp Volume Density 
      48 -137986.35729043 17263.578253466 -120722.77903696 -100022.23474498 -37964.12254545 -1820.0704105492 4264.7811106843       214589.13 0.37213336491546 
      49 -137928.86985164 17229.357847591 -120699.51200405 -99988.263305136 -37940.606546502 -1271.2300354982 4256.3273279034       214589.13 0.37213336491546 
Loop time of 0.0647011 on 1 procs for 1 steps with 1359 atoms

run 1 pre no post no
Step PotEng KinEng TotEng E_vdwl E_coul Press Temp Volume Density 
      49 -137928.86985164 17229.357847591 -120699.51200405 -99988.263305136 -37940.606546502 -1271.2300354982 4256.3273279034       214589.13 0.37213336491546 
      50 -137752.67104861 17222.058789634 -120530.61225898 -99823.796802246 -37928.874246364    -3830.019519 4254.5241742323       214589.13 0.37213336491546 
Loop time of 0.0729051 on 1 procs for 1 steps with 1359 atoms

run 1 pre no post no
Step PotEng KinEng TotEng E_vdwl E_coul Press Temp Volume Density 
      50 -137752.67104861 17222.058789634 -120530.61225898 -99823.796802246 -37928.874246364    -3830.019519 4254.5241742323       214589.13 0.37213336491546 
      51 -137808.41044802 17406.182601306 -120402.22784671 -99869.873104859 -37938.537343157 -4085.502448876 4300.0099792327       214589.13 0.37213336491546 
Loop time of 0.0618341 on 1 procs for 1 steps with 1359 atoms

run 1 pre no post no
Step PotEng KinEng TotEng E_vdwl E_coul Press Temp Volume Density 
      51 -137808.41044802 17406.182601306 -120402.22784671 -99869.873104859 -37938.537343157 -4085.502448876 4300.0099792327       214589.13 0.37213336491546 
      52 -137782.48837395 17511.592173715 -120270.89620023 -99812.830392846 -37969.657981103  102.3200996642 4326.0502790301       214589.13 0.37213336491546 
Loop time of 0.0628321 on 1 procs for 1 steps with 1359 atoms

run 1 pre no post no
Step PotEng KinEng TotEng E_vdwl E_coul Press Temp Volume Density 
      52 -137782.48837395 17511.592173715 -120270.89620023 -99812.830392846 -37969.657981103  102.3200996642 4326.0502790301       214589.13 0.37213336491546 
      53 -137485.58760182 17417.955804071 -120067.63179775 -99481.853936695 -38003.733665123 -1417.1170857053 4302.9184222002       214589.13 0.37213336491546 
Loop time of 0.065793 on 1 procs for 1 steps with 1359 atoms

run 1 pre no post no
Step PotEng KinEng TotEng E_vdwl E_coul Press Temp Volume Density 
      53 -137485.58760182 17417.955804071 -120067.63179775 -99481.853936695 -38003.733665123 -1417.1170857053 4302.9184222002       214589.13 0.37213336491546 
      54 -137346.89944564 17368.972222469 -119977.92722317 -99303.879951051 -38043.01949459 1272.2781248496 4290.8175558281       214589.13 0.37213336491546 
Loop time of 0.0618351 on 1 procs for 1 steps with 1359 atoms

run 1 pre no post no
Step PotEng KinEng TotEng E_vdwl E_coul Press Temp Volume Density 
      54 -137346.89944564 17368.972222469 -119977.92722317 -99303.879951051 -38043.01949459 1272.2781248496 4290.8175558281       214589.13 0.37213336491546 
      55 -137195.1142954 17372.048612337 -119823.06568306 -99127.328613441 -38067.785681958  161.6290080184 4291.5775448179       214589.13 0.37213336491546 
Loop time of 0.0638289 on 1 procs for 1 steps with 1359 atoms

run 1 pre no post no
Step PotEng KinEng TotEng E_vdwl E_coul Press Temp Volume Density 
      55 -137195.1142954 17372.048612337 -119823.06568306 -99127.328613441 -38067.785681958  161.6290080184 4291.5775448179       214589.13 0.37213336491546 
      56 -137358.29847506 17543.514966759 -119814.7835083 -99276.036928235 -38082.261546822 473.28195648061 4333.9364613023       214589.13 0.37213336491546 
Loop time of 0.0628331 on 1 procs for 1 steps with 1359 atoms

run 1 pre no post no
Step PotEng KinEng TotEng E_vdwl E_coul Press Temp Volume Density 
      56 -137358.29847506 17543.514966759 -119814.7835083 -99276.036928235 -38082.261546822 473.28195648061 4333.9364613023       214589.13 0.37213336491546 
      57 -137403.61229582 17672.460409535 -119731.15188628 -99321.003713958 -38082.608581861 2777.1896576375 4365.7910444358       214589.13 0.37213336491546 
Loop time of 0.0638289 on 1 procs for 1 steps with 1359 atoms

run 1 pre no post no
Step PotEng KinEng TotEng E_vdwl E_coul Press Temp Volume Density 
      57 -137403.61229582 17672.460409535 -119731.15188628 -99321.003713958 -38082.608581861 2777.1896576375 4365.7910444358       214589.13 0.37213336491546 
      58 -137336.23160501 17768.748589507 -119567.4830155 -99279.627896405 -38056.603708605 -546.65083752571 4389.5780024522       214589.13 0.37213336491546 
Loop time of 0.0618351 on 1 procs for 1 steps with 1359 atoms

run 1 pre no post no
Step PotEng KinEng TotEng E_vdwl E_coul Press Temp Volume Density 
      58 -137336.23160501 17768.748589507 -119567.4830155 -99279.627896405 -38056.603708605 -546.65083752571 4389.5780024522       214589.13 0.37213336491546 
      59 -137268.48361476 17732.662374622 -119535.82124014 -99250.400483027 -38018.083131737 -1250.5588330931 4380.6632916466       214589.13 0.37213336491546 
Loop time of 0.0598409 on 1 procs for 1 steps with 1359 atoms

run 1 pre no post no
Step PotEng KinEng TotEng E_vdwl E_coul Press Temp Volume Density 
      59 -137268.48361476 17732.662374622 -119535.82124014 -99250.400483027 -38018.083131737 -1250.5588330931 4380.6632916466       214589.13 0.37213336491546 
      60 -136904.63248261 17485.820354945 -119418.81212766 -98924.40114017 -37980.231342439 -1302.5855955739 4319.6836287178       214589.13 0.37213336491546 
Loop time of 0.0728049 on 1 procs for 1 steps with 1359 atoms

run 1 pre no post no
Step PotEng KinEng TotEng E_vdwl E_coul Press Temp Volume Density 
      60 -136904.63248261 17485.820354945 -119418.81212766 -98924.40114017 -37980.231342439 -1302.5855955739 4319.6836287178       214589.13 0.37213336491546 
      61 -136757.83123736 17428.670517587 -119329.16071977 -98812.554260761 -37945.276976597 -346.23487934872 4305.5653767967       214589.13 0.37213336491546 
Loop time of 0.060838 on 1 procs for 1 steps with 1359 atoms

run 1 pre no post no
Step PotEng KinEng TotEng E_vdwl E_coul Press Temp Volume Density 
      61 -136757.83123736 17428.670517587 -119329.16071977 -98812.554260761 -37945.276976597 -346.23487934872 4305.5653767967       214589.13 0.37213336491546 
      62 -136718.7076484  17420.39367244 -119298.31397596  -98800.4564758 -37918.251172605 1012.0992702128 4303.5206713296       214589.13 0.37213336491546 
Loop time of 0.0578461 on 1 procs for 1 steps with 1359 atoms

run 1 pre no post no
Step PotEng KinEng TotEng E_vdwl E_coul Press Temp Volume Density 
      62 -136718.7076484  17420.39367244 -119298.31397596  -98800.4564758 -37918.251172605 1012.0992702128 4303.5206713296       214589.13 0.37213336491546 
      63 -136692.44437282 17386.528389745 -119305.91598308 -98794.580986453 -37897.863386372 539.52873301544 4295.1546179061       214589.13 0.37213336491546 
Loop time of 0.0608361 on 1 procs for 1 steps with 1359 atoms

run 1 pre no post no
Step PotEng KinEng TotEng E_vdwl E_coul Press Temp Volume Density 
      63 -136692.44437282 17386.528389745 -119305.91598308 -98794.580986453 -37897.863386372 539.52873301544 4295.1546179061       214589.13 0.37213336491546 
      64 -136437.03864285 17309.093994984 -119127.94464787 -98545.798873543 -37891.239769307 5589.0103190813 4276.0252845059       214589.13 0.37213336491546 
Loop time of 0.061867 on 1 procs for 1 steps with 1359 atoms

run 1 pre no post no
Step PotEng KinEng TotEng E_vdwl E_coul Press Temp Volume Density 
      64 -136437.03864285 17309.093994984 -119127.94464787 -98545.798873543 -37891.239769307 5589.0103190813 4276.0252845059       214589.13 0.37213336491546 
      65 -136275.06697375 17077.593008561 -119197.47396518 -98402.28101186 -37872.785961886 3022.1578123271 4218.8354586479       214589.13 0.37213336491546 
Loop time of 0.0648611 on 1 procs for 1 steps with 1359 atoms

run 1 pre no post no
Step PotEng KinEng TotEng E_vdwl E_coul Press Temp Volume Density 
      65 -136275.06697375 17077.593008561 -119197.47396518 -98402.28101186 -37872.785961886 3022.1578123271 4218.8354586479       214589.13 0.37213336491546 
      66 -136232.42713436 17065.875642961 -119166.5514914 -98377.119462947 -37855.307671411 2544.1282307262 4215.9408096507       214589.13 0.37213336491546 
Loop time of 0.064851 on 1 procs for 1 steps with 1359 atoms

run 1 pre no post no
Step PotEng KinEng TotEng E_vdwl E_coul Press Temp Volume Density 
      66 -136232.42713436 17065.875642961 -119166.5514914 -98377.119462947 -37855.307671411 2544.1282307262 4215.9408096507       214589.13 0.37213336491546 
      67 -136072.98857223 17097.276700082 -118975.71187215 -98233.803580185 -37839.184992046  1410.961005476 4223.6981026811       214589.13 0.37213336491546 
Loop time of 0.05984 on 1 procs for 1 steps with 1359 atoms

run 1 pre no post no
Step PotEng KinEng TotEng E_vdwl E_coul Press Temp Volume Density 
      67 -136072.98857223 17097.276700082 -118975.71187215 -98233.803580185 -37839.184992046  1410.961005476 4223.6981026811       214589.13 0.37213336491546 
      68 -135868.69269403 17008.164148332 -118860.5285457 -98040.503802118 -37828.188891913 1552.6726083308 4201.6838063487       214589.13 0.37213336491546 
Loop time of 0.0598412 on 1 procs for 1 steps with 1359 atoms

run 1 pre no post no
Step PotEng KinEng TotEng E_vdwl E_coul Press Temp Volume Density 
      68 -135868.69269403 17008.164148332 -118860.5285457 -98040.503802118 -37828.188891913 1552.6726083308 4201.6838063487       214589.13 0.37213336491546 
      69 -135891.3952616 16991.261884555 -118900.13337704 -98065.307557179 -37826.087704416 2774.2307313807 4197.5082840888       214589.13 0.37213336491546 
Loop time of 0.0633731 on 1 procs for 1 steps with 1359 atoms

run 1 pre no post no
Step PotEng KinEng TotEng E_vdwl E_coul Press Temp Volume Density 
      69 -135891.3952616 16991.261884555 -118900.13337704 -98065.307557179 -37826.087704416 2774.2307313807 4197.5082840888       214589.13 0.37213336491546 
      70 -136057.16066481 17215.431387495 -118841.72927731 -98229.148904595 -37828.011760214 5095.1268082815 4252.8869458988       214589.13 0.37213336491546 
Loop time of 0.0753841 on 1 procs for 1 steps with 1359 atoms

run 1 pre no post no
Step PotEng KinEng TotEng E_vdwl E_coul Press Temp Volume Density 
      70 -136057.16066481 17215.431387495 -118841.72927731 -98229.148904595 -37828.011760214 5095.1268082815 4252.8869458988       214589.13 0.37213336491546 
      71 -136069.75466047 17328.395106229 -118741.35955424 -98246.381968893 -37823.372691579 3743.0419052367 4280.7934162016       214589.13 0.37213336491546 
Loop time of 0.0635421 on 1 procs for 1 steps with 1359 atoms

run 1 pre no post no
Step PotEng KinEng TotEng E_vdwl E_coul Press Temp Volume Density 
      71 -136069.75466047 17328.395106229 -118741.35955424 -98246.381968893 -37823.372691579 3743.0419052367 4280.7934162016       214589.13 0.37213336491546 
      72 -136086.48966708  17446.80840911 -118639.68125797 -98275.720854049 -37810.768813032 2718.8926004147 4310.0461475858       214589.13 0.37213336491546 
Loop time of 0.0598409 on 1 procs for 1 steps with 1359 atoms

run 1 pre no post no
Step PotEng KinEng TotEng E_vdwl E_coul Press Temp Volume Density 
      72 -136086.48966708  17446.80840911 -118639.68125797 -98275.720854049 -37810.768813032 2718.8926004147 4310.0461475858       214589.13 0.37213336491546 
      73 -136256.24712477 17623.469892872 -118632.7772319 -98463.413538821 -37792.83358595  4268.722542755 4353.6884648315       214589.13 0.37213336491546 
Loop time of 0.060837 on 1 procs for 1 steps with 1359 atoms

run 1 pre no post no
Step PotEng KinEng TotEng E_vdwl E_coul Press Temp Volume Density 
      73 -136256.24712477 17623.469892872 -118632.7772319 -98463.413538821 -37792.83358595  4268.722542755 4353.6884648315       214589.13 0.37213336491546 
      74 -136124.67366993 17546.096986803 -118578.57668313 -98353.947571456 -37770.726098473 2754.0126838382 4334.5743215505       214589.13 0.37213336491546 
Loop time of 0.05984 on 1 procs for 1 steps with 1359 atoms

run 1 pre no post no
Step PotEng KinEng TotEng E_vdwl E_coul Press Temp Volume Density 
      74 -136124.67366993 17546.096986803 -118578.57668313 -98353.947571456 -37770.726098473 2754.0126838382 4334.5743215505       214589.13 0.37213336491546 
      75 -136091.98891968 17479.824684649 -118612.16423503 -98343.549742479 -37748.439177198 1713.5432925017 4318.2024629334       214589.13 0.37213336491546 
Loop time of 0.0608361 on 1 procs for 1 steps with 1359 atoms

run 1 pre no post no
Step PotEng KinEng TotEng E_vdwl E_coul Press Temp Volume Density 
      75 -136091.98891968 17479.824684649 -118612.16423503 -98343.549742479 -37748.439177198 1713.5432925017 4318.2024629334       214589.13 0.37213336491546 
      76 -135909.16459262 17461.716895777 -118447.44769684 -98184.307356876 -37724.857235744 -3896.0409302161 4313.7291286801       214589.13 0.37213336491546 
Loop time of 0.060837 on 1 procs for 1 steps with 1359 atoms

run 1 pre no post no
Step PotEng KinEng TotEng E_vdwl E_coul Press Temp Volume Density 
      76 -135909.16459262 17461.716895777 -118447.44769684 -98184.307356876 -37724.857235744 -3896.0409302161 4313.7291286801       214589.13 0.37213336491546 
      77 -136139.91631544 17737.846010311 -118402.07030513 -98416.76360252 -37723.152712919 -407.96354493911 4381.9438530254       214589.13 0.37213336491546 
Loop time of 0.060837 on 1 procs for 1 steps with 1359 atoms

run 1 pre no post no
Step PotEng KinEng TotEng E_vdwl E_coul Press Temp Volume Density 
      77 -136139.91631544 17737.846010311 -118402.07030513 -98416.76360252 -37723.152712919 -407.96354493911 4381.9438530254       214589.13 0.37213336491546 
      78 -136067.27008747 17766.448043243 -118300.82204423 -98326.425935839 -37740.844151632 2599.0453823533 4389.0096772702       214589.13 0.37213336491546 
Loop time of 0.0638282 on 1 procs for 1 steps with 1359 atoms

run 1 pre no post no
Step PotEng KinEng TotEng E_vdwl E_coul Press Temp Volume Density 
      78 -136067.27008747 17766.448043243 -118300.82204423 -98326.425935839 -37740.844151632 2599.0453823533 4389.0096772702       214589.13 0.37213336491546 
      79 -135692.34497199 17416.054784986  -118276.290187 -97933.852242617 -37758.492729373  4094.744566792 4302.4487959058       214589.13 0.37213336491546 
Loop time of 0.064826 on 1 procs for 1 steps with 1359 atoms

run 1 pre no post no
Step PotEng KinEng TotEng E_vdwl E_coul Press Temp Volume Density 
      79 -135692.34497199 17416.054784986  -118276.290187 -97933.852242617 -37758.492729373  4094.744566792 4302.4487959058       214589.13 0.37213336491546 
      80 -135250.81616688 17068.362654671 -118182.4535122 -97496.213659259 -37754.602507617 1121.2044964905 4216.5551991132       214589.13 0.37213336491546 
Loop time of 0.0757968 on 1 procs for 1 steps with 1359 atoms

run 1 pre no post no
Step PotEng KinEng TotEng E_vdwl E_coul Press Temp Volume Density 
      80 -135250.81616688 17068.362654671 -118182.4535122 -97496.213659259 -37754.602507617 1121.2044964905 4216.5551991132       214589.13 0.37213336491546 
      81 -135385.50016458 17207.555624143 -118177.94454044 -97655.088054824 -37730.412109757  2406.579897042   4250.94132337       214589.13 0.37213336491546 
Loop time of 0.0608361 on 1 procs for 1 steps with 1359 atoms

run 1 pre no post no
Step PotEng KinEng TotEng E_vdwl E_coul Press Temp Volume Density 
      81 -135385.50016458 17207.555624143 -118177.94454044 -97655.088054824 -37730.412109757  2406.579897042   4250.94132337       214589.13 0.37213336491546 
      82 -135847.00234361 17575.700262232 -118271.30208138 -98167.219385501 -37679.782958114 -240.2621960472 4341.8874919725       214589.13 0.37213336491546 
Loop time of 0.0618348 on 1 procs for 1 steps with 1359 atoms

run 1 pre no post no
Step PotEng KinEng TotEng E_vdwl E_coul Press Temp Volume Density 
      82 -135847.00234361 17575.700262232 -118271.30208138 -98167.219385501 -37679.782958114 -240.2621960472 4341.8874919725       214589.13 0.37213336491546 
      83 -136185.07257292 17804.100134982 -118380.97243794 -98560.088817831 -37624.98375509 -422.05405624374 4398.3112210909       214589.13 0.37213336491546 
Loop time of 0.065824 on 1 procs for 1 steps with 1359 atoms

run 1 pre no post no
Step PotEng KinEng TotEng E_vdwl E_coul Press Temp Volume Density 
      83 -136185.07257292 17804.100134982 -118380.97243794 -98560.088817831 -37624.98375509 -422.05405624374 4398.3112210909       214589.13 0.37213336491546 
      84 -136169.00331335 17889.394452554 -118279.6088608 -98592.636985641 -37576.366327709 -3042.5562891936 4419.3822637849       214589.13 0.37213336491546 
Loop time of 0.05984 on 1 procs for 1 steps with 1359 atoms

run 1 pre no post no
Step PotEng KinEng TotEng E_vdwl E_coul Press Temp Volume Density 
      84 -136169.00331335 17889.394452554 -118279.6088608 -98592.636985641 -37576.366327709 -3042.5562891936 4419.3822637849       214589.13 0.37213336491546 
      85 -136076.39169027 17787.059797236 -118289.33189303 -98525.631385484 -37550.760304786 -2747.3378466347 4394.1015891437       214589.13 0.37213336491546 
Loop time of 0.0618351 on 1 procs for 1 steps with 1359 atoms

run 1 pre no post no
Step PotEng KinEng TotEng E_vdwl E_coul Press Temp Volume Density 
      85 -136076.39169027 17787.059797236 -118289.33189303 -98525.631385484 -37550.760304786 -2747.3378466347 4394.1015891437       214589.13 0.37213336491546 
      86 -135751.76238912 17471.753266738 -118280.00912238 -98205.361875365 -37546.400513754 257.54731610892 4316.2085060528       214589.13 0.37213336491546 
Loop time of 0.0628331 on 1 procs for 1 steps with 1359 atoms

run 1 pre no post no
Step PotEng KinEng TotEng E_vdwl E_coul Press Temp Volume Density 
      86 -135751.76238912 17471.753266738 -118280.00912238 -98205.361875365 -37546.400513754 257.54731610892 4316.2085060528       214589.13 0.37213336491546 
      87 -135358.9250333 17181.669309606 -118177.25572369 -97821.000409192 -37537.924624105 -4673.3830230607 4244.5463881116       214589.13 0.37213336491546 
Loop time of 0.0648291 on 1 procs for 1 steps with 1359 atoms

run 1 pre no post no
Step PotEng KinEng TotEng E_vdwl E_coul Press Temp Volume Density 
      87 -135358.9250333 17181.669309606 -118177.25572369 -97821.000409192 -37537.924624105 -4673.3830230607 4244.5463881116       214589.13 0.37213336491546 
      88 -135211.2230336 17166.583170324 -118044.63986327 -97679.265993058 -37531.957040539 -1640.9657284841 4240.8195198518       214589.13 0.37213336491546 
Loop time of 0.060837 on 1 procs for 1 steps with 1359 atoms

run 1 pre no post no
Step PotEng KinEng TotEng E_vdwl E_coul Press Temp Volume Density 
      88 -135211.2230336 17166.583170324 -118044.63986327 -97679.265993058 -37531.957040539 -1640.9657284841 4240.8195198518       214589.13 0.37213336491546 
      89 -135346.93541177 17305.325583753 -118041.60982802 -97826.542742185 -37520.392669588 544.15143140357 4275.0943390899       214589.13 0.37213336491546 
Loop time of 0.065824 on 1 procs for 1 steps with 1359 atoms

run 1 pre no post no
Step PotEng KinEng TotEng E_vdwl E_coul Press Temp Volume Density 
      89 -135346.93541177 17305.325583753 -118041.60982802 -97826.542742185 -37520.392669588 544.15143140357 4275.0943390899       214589.13 0.37213336491546 
      90 -135621.20506369 17569.448375053 -118051.75668863 -98121.244669133 -37499.960394555 1229.4033676229 4340.3430305664       214589.13 0.37213336491546 
Loop time of 0.071806 on 1 procs for 1 steps with 1359 atoms

run 1 pre no post no
Step PotEng KinEng TotEng E_vdwl E_coul Press Temp Volume Density 
      90 -135621.20506369 17569.448375053 -118051.75668863 -98121.244669133 -37499.960394555 1229.4033676229 4340.3430305664       214589.13 0.37213336491546 
      91 -135655.71257407 17618.904204952 -118036.80836912 -98178.677032056 -37477.035542016 68.342439755483 4352.5605607949       214589.13 0.37213336491546 
Loop time of 0.0596368 on 1 procs for 1 steps with 1359 atoms

run 1 pre no post no
Step PotEng KinEng TotEng E_vdwl E_coul Press Temp Volume Density 
      91 -135655.71257407 17618.904204952 -118036.80836912 -98178.677032056 -37477.035542016 68.342439755483 4352.5605607949       214589.13 0.37213336491546 
      92 -135638.99119583 17551.349368197 -118087.64182764 -98178.326977024 -37460.66421881 629.91683441618 4335.8718658153       214589.13 0.37213336491546 
Loop time of 0.062861 on 1 procs for 1 steps with 1359 atoms

run 1 pre no post no
Step PotEng KinEng TotEng E_vdwl E_coul Press Temp Volume Density 
      92 -135638.99119583 17551.349368197 -118087.64182764 -98178.326977024 -37460.66421881 629.91683441618 4335.8718658153       214589.13 0.37213336491546 
      93 -135614.72133569 17458.639796252 -118156.08153944 -98170.758221182 -37443.963114511 -337.34203559382 4312.9689643772       214589.13 0.37213336491546 
Loop time of 0.0644259 on 1 procs for 1 steps with 1359 atoms

run 1 pre no post no
Step PotEng KinEng TotEng E_vdwl E_coul Press Temp Volume Density 
      93 -135614.72133569 17458.639796252 -118156.08153944 -98170.758221182 -37443.963114511 -337.34203559382 4312.9689643772       214589.13 0.37213336491546 
      94 -135535.86690358 17337.425882259 -118198.44102132 -98107.470524507 -37428.396379072 -249.13068474093 4283.0243721751       214589.13 0.37213336491546 
Loop time of 0.0594099 on 1 procs for 1 steps with 1359 atoms

run 1 pre no post no
Step PotEng KinEng TotEng E_vdwl E_coul Press Temp Volume Density 
      94 -135535.86690358 17337.425882259 -118198.44102132 -98107.470524507 -37428.396379072 -249.13068474093 4283.0243721751       214589.13 0.37213336491546 
      95 -135365.00981089 17197.173047639 -118167.83676326 -97951.337493775 -37413.67231712 -3281.0748171473  4248.376419646       214589.13 0.37213336491546 
Loop time of 0.0638301 on 1 procs for 1 steps with 1359 atoms

run 1 pre no post no
Step PotEng KinEng TotEng E_vdwl E_coul Press Temp Volume Density 
      95 -135365.00981089 17197.173047639 -118167.83676326 -97951.337493775 -37413.67231712 -3281.0748171473  4248.376419646       214589.13 0.37213336491546 
      96 -135540.82839422 17305.246730973 -118235.58166325 -98128.138280755 -37412.690113466 -2972.2916821694 4275.0748593599       214589.13 0.37213336491546 
Loop time of 0.060837 on 1 procs for 1 steps with 1359 atoms

run 1 pre no post no
Step PotEng KinEng TotEng E_vdwl E_coul Press Temp Volume Density 
      96 -135540.82839422 17305.246730973 -118235.58166325 -98128.138280755 -37412.690113466 -2972.2916821694 4275.0748593599       214589.13 0.37213336491546 
      97 -135714.36582585 17504.676864884 -118209.68896097 -98286.919013783 -37427.446812066 -2885.9638803135 4324.3419264485       214589.13 0.37213336491546 
Loop time of 0.0618348 on 1 procs for 1 steps with 1359 atoms

run 1 pre no post no
Step PotEng KinEng TotEng E_vdwl E_coul Press Temp Volume Density 
      97 -135714.36582585 17504.676864884 -118209.68896097 -98286.919013783 -37427.446812066 -2885.9638803135 4324.3419264485       214589.13 0.37213336491546 
      98 -135652.03415231 17558.450144988 -118093.58400732 -98196.767024359 -37455.267127951  358.8189182413 4337.6260362594       214589.13 0.37213336491546 
Loop time of 0.059839 on 1 procs for 1 steps with 1359 atoms

run 1 pre no post no
Step PotEng KinEng TotEng E_vdwl E_coul Press Temp Volume Density 
      98 -135652.03415231 17558.450144988 -118093.58400732 -98196.767024359 -37455.267127951  358.8189182413 4337.6260362594       214589.13 0.37213336491546 
      99 -135427.35765313 17316.575114997 -118110.78253814 -97945.200779894 -37482.15687324 -179.89405449334 4277.8734146473       214589.13 0.37213336491546 
Loop time of 0.0598412 on 1 procs for 1 steps with 1359 atoms

run 1 pre no post no
Step PotEng KinEng TotEng E_vdwl E_coul Press Temp Volume Density 
      99 -135427.35765313 17316.575114997 -118110.78253814 -97945.200779894 -37482.15687324 -179.89405449334 4277.8734146473       214589.13 0.37213336491546 
     100 -135205.01492354  17133.87382375 -118071.14109979 -97703.090908772 -37501.924014772 128.13176222934 4232.7390279999       214589.13 0.37213336491546 
Loop time of 0.0757968 on 1 procs for 1 steps with 1359 atoms

run 1 pre no post no
Step PotEng KinEng TotEng E_vdwl E_coul Press Temp Volume Density 
     100 -135205.01492354  17133.87382375 -118071.14109979 -97703.090908772 -37501.924014772 128.13176222934 4232.7390279999       214589.13 0.37213336491546 
     101 -135204.8626066  17169.95491422 -118034.90769238 -97692.243479564 -37512.619127035 -2356.0854239249 4241.6524728738       214589.13 0.37213336491546 
Loop time of 0.061862 on 1 procs for 1 steps with 1359 atoms

run 1 pre no post no
Step PotEng KinEng TotEng E_vdwl E_coul Press Temp Volume Density 
     101 -135204.8626066  17169.95491422 -118034.90769238 -97692.243479564 -37512.619127035 -2356.0854239249 4241.6524728738       214589.13 0.37213336491546 
     102 -135329.06451218 17338.506387067 -117990.55812511 -97808.120965093 -37520.943547089 769.45038610379 4283.2912992529       214589.13 0.37213336491546 
Loop time of 0.0618339 on 1 procs for 1 steps with 1359 atoms

run 1 pre no post no
Step PotEng KinEng TotEng E_vdwl E_coul Press Temp Volume Density 
     102 -135329.06451218 17338.506387067 -117990.55812511 -97808.120965093 -37520.943547089 769.45038610379 4283.2912992529       214589.13 0.37213336491546 
     103 -135424.6714066 17353.084026389 -118071.58738021 -97909.636535165 -37515.034871436 -219.64343690193  4286.892548073       214589.13 0.37213336491546 
Loop time of 0.060837 on 1 procs for 1 steps with 1359 atoms

run 1 pre no post no
Step PotEng KinEng TotEng E_vdwl E_coul Press Temp Volume Density 
     103 -135424.6714066 17353.084026389 -118071.58738021 -97909.636535165 -37515.034871436 -219.64343690193  4286.892548073       214589.13 0.37213336491546 
     104 -135475.10404752 17387.240288506 -118087.86375901 -97976.909666048 -37498.194381468 2270.6152249778 4295.3304848292       214589.13 0.37213336491546 
Loop time of 0.0598109 on 1 procs for 1 steps with 1359 atoms

run 1 pre no post no
Step PotEng KinEng TotEng E_vdwl E_coul Press Temp Volume Density 
     104 -135475.10404752 17387.240288506 -118087.86375901 -97976.909666048 -37498.194381468 2270.6152249778 4295.3304848292       214589.13 0.37213336491546 
     105 -135419.30373187 17327.979344312 -118091.32438756 -97956.784754338 -37462.51897753 -262.73372724735  4280.690706697       214589.13 0.37213336491546 
Loop time of 0.0608649 on 1 procs for 1 steps with 1359 atoms

run 1 pre no post no
Step PotEng KinEng TotEng E_vdwl E_coul Press Temp Volume Density 
     105 -135419.30373187 17327.979344312 -118091.32438756 -97956.784754338 -37462.51897753 -262.73372724735  4280.690706697       214589.13 0.37213336491546 
     106 -135618.04654507 17574.587407449 -118043.45913762 -98194.490915537 -37423.555629529 931.62694848683 4341.6125731818       214589.13 0.37213336491546 
Loop time of 0.0628331 on 1 procs for 1 steps with 1359 atoms

run 1 pre no post no
Step PotEng KinEng TotEng E_vdwl E_coul Press Temp Volume Density 
     106 -135618.04654507 17574.587407449 -118043.45913762 -98194.490915537 -37423.555629529 931.62694848683 4341.6125731818       214589.13 0.37213336491546 
     107 -135656.02504045 17713.280927515 -117942.74411294 -98271.590623242 -37384.434417208 -1689.4352922738 4375.8753138412       214589.13 0.37213336491546 
Loop time of 0.0628309 on 1 procs for 1 steps with 1359 atoms

run 1 pre no post no
Step PotEng KinEng TotEng E_vdwl E_coul Press Temp Volume Density 
     107 -135656.02504045 17713.280927515 -117942.74411294 -98271.590623242 -37384.434417208 -1689.4352922738 4375.8753138412       214589.13 0.37213336491546 
     108 -135508.70999877 17683.049751679 -117825.66024709 -98148.786028983 -37359.923969787 -1226.0260499078 4368.4070273848       214589.13 0.37213336491546 
Loop time of 0.0658259 on 1 procs for 1 steps with 1359 atoms

run 1 pre no post no
Step PotEng KinEng TotEng E_vdwl E_coul Press Temp Volume Density 
     108 -135508.70999877 17683.049751679 -117825.66024709 -98148.786028983 -37359.923969787 -1226.0260499078 4368.4070273848       214589.13 0.37213336491546 
     109 -135447.26768749  17614.50053238 -117832.76715511 -98095.151096111 -37352.116591376 -1510.1630501448 4351.4726809053       214589.13 0.37213336491546 
Loop time of 0.0628369 on 1 procs for 1 steps with 1359 atoms

run 1 pre no post no
Step PotEng KinEng TotEng E_vdwl E_coul Press Temp Volume Density 
     109 -135447.26768749  17614.50053238 -117832.76715511 -98095.151096111 -37352.116591376 -1510.1630501448 4351.4726809053       214589.13 0.37213336491546 
     110 -135276.59201749 17540.877856396 -117735.71416109 -97916.597811643 -37359.994205844 -813.79413209198 4333.2849915839       214589.13 0.37213336491546 
Loop time of 0.0748 on 1 procs for 1 steps with 1359 atoms

run 1 pre no post no
Step PotEng KinEng TotEng E_vdwl E_coul Press Temp Volume Density 
     110 -135276.59201749 17540.877856396 -117735.71416109 -97916.597811643 -37359.994205844 -813.79413209198 4333.2849915839       214589.13 0.37213336491546 
     111 -135021.55752763 17504.378738015 -117517.17878962 -97645.973867172 -37375.583660461  1366.826192855 4324.2682774159       214589.13 0.37213336491546 
Loop time of 0.0618348 on 1 procs for 1 steps with 1359 atoms

run 1 pre no post no
Step PotEng KinEng TotEng E_vdwl E_coul Press Temp Volume Density 
     111 -135021.55752763 17504.378738015 -117517.17878962 -97645.973867172 -37375.583660461  1366.826192855 4324.2682774159       214589.13 0.37213336491546 
     112 -134760.71783718  17434.54123417 -117326.17660301 -97375.164646283 -37385.553190893 -1657.3764695715 4307.0156741117       214589.13 0.37213336491546 
Loop time of 0.0594101 on 1 procs for 1 steps with 1359 atoms

run 1 pre no post no
Step PotEng KinEng TotEng E_vdwl E_coul Press Temp Volume Density 
     112 -134760.71783718  17434.54123417 -117326.17660301 -97375.164646283 -37385.553190893 -1657.3764695715 4307.0156741117       214589.13 0.37213336491546 
     113 -134793.8875857 17387.357801362 -117406.52978434 -97396.369064414 -37397.51852129  353.7193766128 4295.3595151148       214589.13 0.37213336491546 
Loop time of 0.063695 on 1 procs for 1 steps with 1359 atoms

run 1 pre no post no
Step PotEng KinEng TotEng E_vdwl E_coul Press Temp Volume Density 
     113 -134793.8875857 17387.357801362 -117406.52978434 -97396.369064414 -37397.51852129  353.7193766128 4295.3595151148       214589.13 0.37213336491546 
     114 -134759.17732218 17409.490267846 -117349.68705433 -97365.268423614 -37393.908898562 825.39531555393  4300.827102634       214589.13 0.37213336491546 
Loop time of 0.0588431 on 1 procs for 1 steps with 1359 atoms

run 1 pre no post no
Step PotEng KinEng TotEng E_vdwl E_coul Press Temp Volume Density 
     114 -134759.17732218 17409.490267846 -117349.68705433 -97365.268423614 -37393.908898562 825.39531555393  4300.827102634       214589.13 0.37213336491546 
     115 -134879.4321922 17616.397022772 -117263.03516943 -97506.498364843 -37372.933827357 1977.3889014509 4351.9411884351       214589.13 0.37213336491546 
Loop time of 0.060581 on 1 procs for 1 steps with 1359 atoms

run 1 pre no post no
Step PotEng KinEng TotEng E_vdwl E_coul Press Temp Volume Density 
     115 -134879.4321922 17616.397022772 -117263.03516943 -97506.498364843 -37372.933827357 1977.3889014509 4351.9411884351       214589.13 0.37213336491546 
     116 -134993.58219276 17776.127053531 -117217.45513922 -97651.277572748 -37342.304620008 588.07683156635  4391.400772537       214589.13 0.37213336491546 
Loop time of 0.0593488 on 1 procs for 1 steps with 1359 atoms

run 1 pre no post no
Step PotEng KinEng TotEng E_vdwl E_coul Press Temp Volume Density 
     116 -134993.58219276 17776.127053531 -117217.45513922 -97651.277572748 -37342.304620008 588.07683156635  4391.400772537       214589.13 0.37213336491546 
     117 -135103.87267106  17934.40892039 -117169.46375067 -97791.861792014 -37312.010879043 -281.61285961779 4430.5026033411       214589.13 0.37213336491546 
Loop time of 0.0598381 on 1 procs for 1 steps with 1359 atoms

run 1 pre no post no
Step PotEng KinEng TotEng E_vdwl E_coul Press Temp Volume Density 
     117 -135103.87267106  17934.40892039 -117169.46375067 -97791.861792014 -37312.010879043 -281.61285961779 4430.5026033411       214589.13 0.37213336491546 
     118 -135072.45941204 17949.768004517 -117122.69140752 -97777.185828412 -37295.273583623 1742.5563906376 4434.2968996859       214589.13 0.37213336491546 
Loop time of 0.0598681 on 1 procs for 1 steps with 1359 atoms

run 1 pre no post no
Step PotEng KinEng TotEng E_vdwl E_coul Press Temp Volume Density 
     118 -135072.45941204 17949.768004517 -117122.69140752 -97777.185828412 -37295.273583623 1742.5563906376 4434.2968996859       214589.13 0.37213336491546 
     119 -134782.12656221 17799.394100545 -116982.73246167 -97498.750092057 -37283.376470157 -1023.030685941 4397.1486459586       214589.13 0.37213336491546 
Loop time of 0.0588429 on 1 procs for 1 steps with 1359 atoms

run 1 pre no post no
Step PotEng KinEng TotEng E_vdwl E_coul Press Temp Volume Density 
     119 -134782.12656221 17799.394100545 -116982.73246167 -97498.750092057 -37283.376470157 -1023.030685941 4397.1486459586       214589.13 0.37213336491546 
     120 -134869.96570795 17850.682371815 -117019.28333614 -97590.188954795 -37279.776753158 -216.36156035768  4409.818861096       214589.13 0.37213336491546 
Loop time of 0.0718079 on 1 procs for 1 steps with 1359 atoms

run 1 pre no post no
Step PotEng KinEng TotEng E_vdwl E_coul Press Temp Volume Density 
     120 -134869.96570795 17850.682371815 -117019.28333614 -97590.188954795 -37279.776753158 -216.36156035768  4409.818861096       214589.13 0.37213336491546 
     121 -134828.01330946 17913.705146754 -116914.30816271 -97551.206030246 -37276.807279218 -3328.0537010254 4425.3879590058       214589.13 0.37213336491546 
Loop time of 0.0647981 on 1 procs for 1 steps with 1359 atoms

run 1 pre no post no
Step PotEng KinEng TotEng E_vdwl E_coul Press Temp Volume Density 
     121 -134828.01330946 17913.705146754 -116914.30816271 -97551.206030246 -37276.807279218 -3328.0537010254 4425.3879590058       214589.13 0.37213336491546 
     122 -134873.33310148 18029.287131042 -116844.04597043 -97589.496447887 -37283.836653589 -1766.2744693367 4453.9412436199       214589.13 0.37213336491546 
Loop time of 0.060838 on 1 procs for 1 steps with 1359 atoms

run 1 pre no post no
Step PotEng KinEng TotEng E_vdwl E_coul Press Temp Volume Density 
     122 -134873.33310148 18029.287131042 -116844.04597043 -97589.496447887 -37283.836653589 -1766.2744693367 4453.9412436199       214589.13 0.37213336491546 
     123 -135161.39250994 18298.024529567 -116863.36798037 -97867.802934337 -37293.589575605 -2166.7662780938 4520.3299241202       214589.13 0.37213336491546 
Loop time of 0.05984 on 1 procs for 1 steps with 1359 atoms

run 1 pre no post no
Step PotEng KinEng TotEng E_vdwl E_coul Press Temp Volume Density 
     123 -135161.39250994 18298.024529567 -116863.36798037 -97867.802934337 -37293.589575605 -2166.7662780938 4520.3299241202       214589.13 0.37213336491546 
     124 -135394.62990969 18621.912725368 -116772.71718432 -98088.367068054 -37306.262841632 2794.2079994804 4600.3430152156       214589.13 0.37213336491546 
Loop time of 0.059839 on 1 procs for 1 steps with 1359 atoms

run 1 pre no post no
Step PotEng KinEng TotEng E_vdwl E_coul Press Temp Volume Density 
     124 -135394.62990969 18621.912725368 -116772.71718432 -98088.367068054 -37306.262841632 2794.2079994804 4600.3430152156       214589.13 0.37213336491546 
     125 -135271.82532123 18597.967099277 -116673.85822195 -97964.847529445 -37306.977791781 1503.9554023584   4594.42750614       214589.13 0.37213336491546 
Loop time of 0.0618331 on 1 procs for 1 steps with 1359 atoms

run 1 pre no post no
Step PotEng KinEng TotEng E_vdwl E_coul Press Temp Volume Density 
     125 -135271.82532123 18597.967099277 -116673.85822195 -97964.847529445 -37306.977791781 1503.9554023584   4594.42750614       214589.13 0.37213336491546 
     126 -135191.11015321 18497.395516347 -116693.71463686 -97887.68498634 -37303.425166866 -1517.4021242009 4569.5823795472       214589.13 0.37213336491546 
Loop time of 0.0628309 on 1 procs for 1 steps with 1359 atoms

run 1 pre no post no
Step PotEng KinEng TotEng E_vdwl E_coul Press Temp Volume Density 
     126 -135191.11015321 18497.395516347 -116693.71463686 -97887.68498634 -37303.425166866 -1517.4021242009 4569.5823795472       214589.13 0.37213336491546 
     127 -135181.81594892  18444.44062034 -116737.37532858 -97870.468719033 -37311.347229887 -1066.4239003707 4556.5004427151       214589.13 0.37213336491546 
Loop time of 0.0618329 on 1 procs for 1 steps with 1359 atoms

run 1 pre no post no
Step PotEng KinEng TotEng E_vdwl E_coul Press Temp Volume Density 
     127 -135181.81594892  18444.44062034 -116737.37532858 -97870.468719033 -37311.347229887 -1066.4239003707 4556.5004427151       214589.13 0.37213336491546 
     128 -134918.01074227 18263.249536351 -116654.76120592 -97590.603992972  -37327.4067493 188.82162006035 4511.7391365085       214589.13 0.37213336491546 
Loop time of 0.0628312 on 1 procs for 1 steps with 1359 atoms

run 1 pre no post no
Step PotEng KinEng TotEng E_vdwl E_coul Press Temp Volume Density 
     128 -134918.01074227 18263.249536351 -116654.76120592 -97590.603992972  -37327.4067493 188.82162006035 4511.7391365085       214589.13 0.37213336491546 
     129 -134629.39388271 18025.566082271 -116603.82780044 -97285.770174771 -37343.62370794 -855.12474788157 4453.0219985896       214589.13 0.37213336491546 
Loop time of 0.059876 on 1 procs for 1 steps with 1359 atoms

run 1 pre no post no
Step PotEng KinEng TotEng E_vdwl E_coul Press Temp Volume Density 
     129 -134629.39388271 18025.566082271 -116603.82780044 -97285.770174771 -37343.62370794 -855.12474788157 4453.0219985896       214589.13 0.37213336491546 
     130 -134543.09431086 18063.550256042 -116479.54405481 -97190.162898384 -37352.931412472 -425.47661584379 4462.4055797005       214589.13 0.37213336491546 
Loop time of 0.0708098 on 1 procs for 1 steps with 1359 atoms

run 1 pre no post no
Step PotEng KinEng TotEng E_vdwl E_coul Press Temp Volume Density 
     130 -134543.09431086 18063.550256042 -116479.54405481 -97190.162898384 -37352.931412472 -425.47661584379 4462.4055797005       214589.13 0.37213336491546 
     131 -134472.20436805 17912.206609725 -116559.99775833 -97115.561919608 -37356.642448446 -259.32002270529 4425.0177615692       214589.13 0.37213336491546 
Loop time of 0.060838 on 1 procs for 1 steps with 1359 atoms

run 1 pre no post no
Step PotEng KinEng TotEng E_vdwl E_coul Press Temp Volume Density 
     131 -134472.20436805 17912.206609725 -116559.99775833 -97115.561919608 -37356.642448446 -259.32002270529 4425.0177615692       214589.13 0.37213336491546 
     132 -134598.3701258 17985.935200539 -116612.43492527 -97250.114829834 -37348.25529597 -1421.0672864983 4443.2316160091       214589.13 0.37213336491546 
Loop time of 0.0664361 on 1 procs for 1 steps with 1359 atoms

run 1 pre no post no
Step PotEng KinEng TotEng E_vdwl E_coul Press Temp Volume Density 
     132 -134598.3701258 17985.935200539 -116612.43492527 -97250.114829834 -37348.25529597 -1421.0672864983 4443.2316160091       214589.13 0.37213336491546 
     133 -135011.01297444 18371.998447486 -116639.01452695 -97673.282018615 -37337.730955825 4198.7125562368 4538.6043839797       214589.13 0.37213336491546 
Loop time of 0.0598402 on 1 procs for 1 steps with 1359 atoms

run 1 pre no post no
Step PotEng KinEng TotEng E_vdwl E_coul Press Temp Volume Density 
     133 -135011.01297444 18371.998447486 -116639.01452695 -97673.282018615 -37337.730955825 4198.7125562368 4538.6043839797       214589.13 0.37213336491546 
     134 -135124.91993946 18544.247104533 -116580.67283493 -97813.411839315 -37311.508100148 1643.5180737056 4581.1565599034       214589.13 0.37213336491546 
Loop time of 0.05984 on 1 procs for 1 steps with 1359 atoms

run 1 pre no post no
Step PotEng KinEng TotEng E_vdwl E_coul Press Temp Volume Density 
     134 -135124.91993946 18544.247104533 -116580.67283493 -97813.411839315 -37311.508100148 1643.5180737056 4581.1565599034       214589.13 0.37213336491546 
     135 -135168.72061387 18492.002461073 -116676.7181528 -97880.878590065 -37287.842023809 2461.0140143493 4568.2500833149       214589.13 0.37213336491546 
Loop time of 0.0633531 on 1 procs for 1 steps with 1359 atoms

run 1 pre no post no
Step PotEng KinEng TotEng E_vdwl E_coul Press Temp Volume Density 
     135 -135168.72061387 18492.002461073 -116676.7181528 -97880.878590065 -37287.842023809 2461.0140143493 4568.2500833149       214589.13 0.37213336491546 
     136 -135122.15227932  18427.78911311 -116694.36316621 -97862.483080828 -37259.669198495 2397.0081342341 4552.3868671598       214589.13 0.37213336491546 
Loop time of 0.0598731 on 1 procs for 1 steps with 1359 atoms

run 1 pre no post no
Step PotEng KinEng TotEng E_vdwl E_coul Press Temp Volume Density 
     136 -135122.15227932  18427.78911311 -116694.36316621 -97862.483080828 -37259.669198495 2397.0081342341 4552.3868671598       214589.13 0.37213336491546 
     137 -134907.96201446  18155.14207741 -116752.81993705 -97677.817990198 -37230.144024258  4057.193071174 4485.0323528949       214589.13 0.37213336491546 
Loop time of 0.0631058 on 1 procs for 1 steps with 1359 atoms

run 1 pre no post no
Step PotEng KinEng TotEng E_vdwl E_coul Press Temp Volume Density 
     137 -134907.96201446  18155.14207741 -116752.81993705 -97677.817990198 -37230.144024258  4057.193071174 4485.0323528949       214589.13 0.37213336491546 
     138 -134705.20104114 17908.459522959 -116796.74151818 -97515.044387918 -37190.156653224 4048.9230797566 4424.0920841329       214589.13 0.37213336491546 
Loop time of 0.0613458 on 1 procs for 1 steps with 1359 atoms

run 1 pre no post no
Step PotEng KinEng TotEng E_vdwl E_coul Press Temp Volume Density 
     138 -134705.20104114 17908.459522959 -116796.74151818 -97515.044387918 -37190.156653224 4048.9230797566 4424.0920841329       214589.13 0.37213336491546 
     139 -134525.72988067 17763.132682693 -116762.59719798 -97391.714479799 -37134.015400873 359.67737759949 4388.1906531468       214589.13 0.37213336491546 
Loop time of 0.0588429 on 1 procs for 1 steps with 1359 atoms

run 1 pre no post no
Step PotEng KinEng TotEng E_vdwl E_coul Press Temp Volume Density 
     139 -134525.72988067 17763.132682693 -116762.59719798 -97391.714479799 -37134.015400873 359.67737759949 4388.1906531468       214589.13 0.37213336491546 
     140 -134475.28121297 17710.542743759 -116764.73846921 -97398.699354741 -37076.581858233 278.70921389413 4375.1988750294       214589.13 0.37213336491546 
Loop time of 0.0708399 on 1 procs for 1 steps with 1359 atoms

run 1 pre no post no
Step PotEng KinEng TotEng E_vdwl E_coul Press Temp Volume Density 
     140 -134475.28121297 17710.542743759 -116764.73846921 -97398.699354741 -37076.581858233 278.70921389413 4375.1988750294       214589.13 0.37213336491546 
     141 -134735.4681093 17834.931195676 -116900.53691362 -97713.288150399  -37022.1799589  919.6750805328  4405.927702642       214589.13 0.37213336491546 
Loop time of 0.063828 on 1 procs for 1 steps with 1359 atoms

run 1 pre no post no
Step PotEng KinEng TotEng E_vdwl E_coul Press Temp Volume Density 
     141 -134735.4681093 17834.931195676 -116900.53691362 -97713.288150399  -37022.1799589  919.6750805328  4405.927702642       214589.13 0.37213336491546 
     142 -134973.77314896 17975.594038953 -116998.17911001 -97996.428236482 -36977.34491248 -1695.1257671625 4440.6769433946       214589.13 0.37213336491546 
Loop time of 0.0618331 on 1 procs for 1 steps with 1359 atoms

run 1 pre no post no
Step PotEng KinEng TotEng E_vdwl E_coul Press Temp Volume Density 
     142 -134973.77314896 17975.594038953 -116998.17911001 -97996.428236482 -36977.34491248 -1695.1257671625 4440.6769433946       214589.13 0.37213336491546 
     143 -134688.19340018 17728.192393667 -116960.00100652 -97730.368932702 -36957.824467482 -4103.4057701148 4379.5590309852       214589.13 0.37213336491546 
Loop time of 0.0618329 on 1 procs for 1 steps with 1359 atoms

run 1 pre no post no
Step PotEng KinEng TotEng E_vdwl E_coul Press Temp Volume Density 
     143 -134688.19340018 17728.192393667 -116960.00100652 -97730.368932702 -36957.824467482 -4103.4057701148 4379.5590309852       214589.13 0.37213336491546 
     144 -134355.38502472 17459.129306263 -116896.25571845 -97385.508128184 -36969.876896534 -480.96445601713 4313.0898925543       214589.13 0.37213336491546 
Loop time of 0.060837 on 1 procs for 1 steps with 1359 atoms

run 1 pre no post no
Step PotEng KinEng TotEng E_vdwl E_coul Press Temp Volume Density 
     144 -134355.38502472 17459.129306263 -116896.25571845 -97385.508128184 -36969.876896534 -480.96445601713 4313.0898925543       214589.13 0.37213336491546 
     145 -134466.82916749 17590.541483647 -116876.28768384 -97479.274833359 -36987.55433413  161.4075534481 4345.5538559106       214589.13 0.37213336491546 
Loop time of 0.05984 on 1 procs for 1 steps with 1359 atoms

run 1 pre no post no
Step PotEng KinEng TotEng E_vdwl E_coul Press Temp Volume Density 
     145 -134466.82916749 17590.541483647 -116876.28768384 -97479.274833359 -36987.55433413  161.4075534481 4345.5538559106       214589.13 0.37213336491546 
     146 -134691.08749477 17896.714338802 -116794.37315597 -97686.050247423 -37005.037247344 1000.2231000536 4421.1905628607       214589.13 0.37213336491546 
Loop time of 0.05983 on 1 procs for 1 steps with 1359 atoms

run 1 pre no post no
Step PotEng KinEng TotEng E_vdwl E_coul Press Temp Volume Density 
     146 -134691.08749477 17896.714338802 -116794.37315597 -97686.050247423 -37005.037247344 1000.2231000536 4421.1905628607       214589.13 0.37213336491546 
     147 -134670.97875319 17953.019115415 -116717.95963778 -97649.005318418 -37021.973434775 597.54418503141 4435.1000516248       214589.13 0.37213336491546 
Loop time of 0.0608349 on 1 procs for 1 steps with 1359 atoms

run 1 pre no post no
Step PotEng KinEng TotEng E_vdwl E_coul Press Temp Volume Density 
     147 -134670.97875319 17953.019115415 -116717.95963778 -97649.005318418 -37021.973434775 597.54418503141 4435.1000516248       214589.13 0.37213336491546 
     148 -134552.67248863 17774.162500281 -116778.50998835 -97515.638576574 -37037.033912056 -658.20212158298  4390.915450811       214589.13 0.37213336491546 
Loop time of 0.0578449 on 1 procs for 1 steps with 1359 atoms

run 1 pre no post no
Step PotEng KinEng TotEng E_vdwl E_coul Press Temp Volume Density 
     148 -134552.67248863 17774.162500281 -116778.50998835 -97515.638576574 -37037.033912056 -658.20212158298  4390.915450811       214589.13 0.37213336491546 
     149 -134419.97488216 17675.263132329 -116744.71174984 -97370.756062929 -37049.218819235 3006.1683220188 4366.4834269219       214589.13 0.37213336491546 
Loop time of 0.060838 on 1 procs for 1 steps with 1359 atoms

run 1 pre no post no
Step PotEng KinEng TotEng E_vdwl E_coul Press Temp Volume Density 
     149 -134419.97488216 17675.263132329 -116744.71174984 -97370.756062929 -37049.218819235 3006.1683220188 4366.4834269219       214589.13 0.37213336491546 
     150 -134405.87373244 17558.911315626 -116846.96241681 -97359.162262685 -37046.711469752 3015.9472175104 4337.7399634995       214589.13 0.37213336491546 
Loop time of 0.070812 on 1 procs for 1 steps with 1359 atoms

run 1 pre no post no
Step PotEng KinEng TotEng E_vdwl E_coul Press Temp Volume Density 
     150 -134405.87373244 17558.911315626 -116846.96241681 -97359.162262685 -37046.711469752 3015.9472175104 4337.7399634995       214589.13 0.37213336491546 
     151 -134413.6721243  17532.03667261 -116881.63545169 -97378.337176293 -37035.334948009 3708.1441702925 4331.1008723326       214589.13 0.37213336491546 
Loop time of 0.059767 on 1 procs for 1 steps with 1359 atoms

run 1 pre no post no
Step PotEng KinEng TotEng E_vdwl E_coul Press Temp Volume Density 
     151 -134413.6721243  17532.03667261 -116881.63545169 -97378.337176293 -37035.334948009 3708.1441702925 4331.1008723326       214589.13 0.37213336491546 
     152 -134337.00728245 17491.487348954 -116845.5199335 -97319.547041985 -37017.460240465 1321.6872869693 4321.0835985648       214589.13 0.37213336491546 
Loop time of 0.0628309 on 1 procs for 1 steps with 1359 atoms

run 1 pre no post no
Step PotEng KinEng TotEng E_vdwl E_coul Press Temp Volume Density 
     152 -134337.00728245 17491.487348954 -116845.5199335 -97319.547041985 -37017.460240465 1321.6872869693 4321.0835985648       214589.13 0.37213336491546 
     153 -134460.82291809 17474.664946884 -116986.15797121 -97461.103940268 -36999.718977821 -600.67249044981 4316.9278052796       214589.13 0.37213336491546 
Loop time of 0.060837 on 1 procs for 1 steps with 1359 atoms

run 1 pre no post no
Step PotEng KinEng TotEng E_vdwl E_coul Press Temp Volume Density 
     153 -134460.82291809 17474.664946884 -116986.15797121 -97461.103940268 -36999.718977821 -600.67249044981 4316.9278052796       214589.13 0.37213336491546 
     154 -134474.36170263  17573.74371264 -116900.61798999 -97488.607053184 -36985.754649449 1431.9481216817 4341.4041474642       214589.13 0.37213336491546 
Loop time of 0.0588722 on 1 procs for 1 steps with 1359 atoms

run 1 pre no post no
Step PotEng KinEng TotEng E_vdwl E_coul Press Temp Volume Density 
     154 -134474.36170263  17573.74371264 -116900.61798999 -97488.607053184 -36985.754649449 1431.9481216817 4341.4041474642       214589.13 0.37213336491546 
     155 -134548.78797852 17592.313794068 -116956.47418445 -97579.388663093 -36969.399315425 1112.7793421113 4345.9916861156       214589.13 0.37213336491546 
Loop time of 0.0608652 on 1 procs for 1 steps with 1359 atoms

run 1 pre no post no
Step PotEng KinEng TotEng E_vdwl E_coul Press Temp Volume Density 
     155 -134548.78797852 17592.313794068 -116956.47418445 -97579.388663093 -36969.399315425 1112.7793421113 4345.9916861156       214589.13 0.37213336491546 
     156 -134429.05411936 17581.474710978 -116847.57940838 -97471.685647298 -36957.368472065 -677.35030203602 4343.3140073553       214589.13 0.37213336491546 
Loop time of 0.061836 on 1 procs for 1 steps with 1359 atoms

run 1 pre no post no
Step PotEng KinEng TotEng E_vdwl E_coul Press Temp Volume Density 
     156 -134429.05411936 17581.474710978 -116847.57940838 -97471.685647298 -36957.368472065 -677.35030203602 4343.3140073553       214589.13 0.37213336491546 
     157 -134403.3717627 17552.819458585 -116850.55230412 -97446.390363066 -36956.981399636 -1060.7000553201 4336.2350358156       214589.13 0.37213336491546 
Loop time of 0.0598402 on 1 procs for 1 steps with 1359 atoms

run 1 pre no post no
Step PotEng KinEng TotEng E_vdwl E_coul Press Temp Volume Density 
     157 -134403.3717627 17552.819458585 -116850.55230412 -97446.390363066 -36956.981399636 -1060.7000553201 4336.2350358156       214589.13 0.37213336491546 
     158 -134328.38895845 17471.590924725 -116856.79803372 -97354.417377538 -36973.971580907 743.47609353684 4316.1684012066       214589.13 0.37213336491546 
Loop time of 0.0608361 on 1 procs for 1 steps with 1359 atoms

run 1 pre no post no
Step PotEng KinEng TotEng E_vdwl E_coul Press Temp Volume Density 
     158 -134328.38895845 17471.590924725 -116856.79803372 -97354.417377538 -36973.971580907 743.47609353684 4316.1684012066       214589.13 0.37213336491546 
     159 -134121.78245497 17281.122487491 -116840.65996747 -97122.487470087 -36999.294984878 -520.17294448992 4269.1152247812       214589.13 0.37213336491546 
Loop time of 0.0588419 on 1 procs for 1 steps with 1359 atoms

run 1 pre no post no
Step PotEng KinEng TotEng E_vdwl E_coul Press Temp Volume Density 
     159 -134121.78245497 17281.122487491 -116840.65996747 -97122.487470087 -36999.294984878 -520.17294448992 4269.1152247812       214589.13 0.37213336491546 
     160 -134059.98818654 17217.613846592 -116842.37433995 -97028.896875334 -37031.091311207  2090.908573748 4253.4260989177       214589.13 0.37213336491546 
Loop time of 0.0718391 on 1 procs for 1 steps with 1359 atoms

run 1 pre no post no
Step PotEng KinEng TotEng E_vdwl E_coul Press Temp Volume Density 
     160 -134059.98818654 17217.613846592 -116842.37433995 -97028.896875334 -37031.091311207  2090.908573748 4253.4260989177       214589.13 0.37213336491546 
     161 -134085.06439552 17192.161599506 -116892.90279601 -97030.787403214 -37054.276992306 686.03585899674 4247.1383953488       214589.13 0.37213336491546 
Loop time of 0.058841 on 1 procs for 1 steps with 1359 atoms

run 1 pre no post no
Step PotEng KinEng TotEng E_vdwl E_coul Press Temp Volume Density 
     161 -134085.06439552 17192.161599506 -116892.90279601 -97030.787403214 -37054.276992306 686.03585899674 4247.1383953488       214589.13 0.37213336491546 
     162 -134270.2106655 17370.372044824 -116899.83862067 -97205.71404312 -37064.496622377 815.18279281239 4291.1633668675       214589.13 0.37213336491546 
Loop time of 0.059376 on 1 procs for 1 steps with 1359 atoms

run 1 pre no post no
Step PotEng KinEng TotEng E_vdwl E_coul Press Temp Volume Density 
     162 -134270.2106655 17370.372044824 -116899.83862067 -97205.71404312 -37064.496622377 815.18279281239 4291.1633668675       214589.13 0.37213336491546 
[...]
Loop time of 0.0584521 on 1 procs for 1 steps with 1359 atoms

run 1 pre no post no
Step PotEng KinEng TotEng E_vdwl E_coul Press Temp Volume Density 
     392 -134393.70696231 16607.868869152 -117785.83809316 -97953.618322048 -36440.088640266 -736.40335121067 4102.7951680678       214589.13 0.37213336491546 
     393 -134537.82423212 16751.168004832 -117786.65622728 -98091.695299092 -36446.128933024  1644.695561303 4138.1956764706       214589.13 0.37213336491546 
Loop time of 0.0578449 on 1 procs for 1 steps with 1359 atoms

run 1 pre no post no
Step PotEng KinEng TotEng E_vdwl E_coul Press Temp Volume Density 
     393 -134537.82423212 16751.168004832 -117786.65622728 -98091.695299092 -36446.128933024  1644.695561303 4138.1956764706       214589.13 0.37213336491546 
     394 -134769.40095993  16968.86592182 -117800.53503811 -98331.691519671 -36437.709440259 1199.7044996887 4191.9756026583       214589.13 0.37213336491546 
Loop time of 0.0598402 on 1 procs for 1 steps with 1359 atoms

run 1 pre no post no
Step PotEng KinEng TotEng E_vdwl E_coul Press Temp Volume Density 
     394 -134769.40095993  16968.86592182 -117800.53503811 -98331.691519671 -36437.709440259 1199.7044996887 4191.9756026583       214589.13 0.37213336491546 
     395 -134842.48375486  17004.67622172 -117837.80753314 -98421.55703135 -36420.926723515 2138.2222589572 4200.8221516377       214589.13 0.37213336491546 
Loop time of 0.061856 on 1 procs for 1 steps with 1359 atoms

run 1 pre no post no
Step PotEng KinEng TotEng E_vdwl E_coul Press Temp Volume Density 
     395 -134842.48375486  17004.67622172 -117837.80753314 -98421.55703135 -36420.926723515 2138.2222589572 4200.8221516377       214589.13 0.37213336491546 
     396 -134658.48855199 16884.316860197 -117774.17169179 -98264.644309767 -36393.844242219 1088.4293840597 4171.0886674215       214589.13 0.37213336491546 
Loop time of 0.05585 on 1 procs for 1 steps with 1359 atoms

run 1 pre no post no
Step PotEng KinEng TotEng E_vdwl E_coul Press Temp Volume Density 
     396 -134658.48855199 16884.316860197 -117774.17169179 -98264.644309767 -36393.844242219 1088.4293840597 4171.0886674215       214589.13 0.37213336491546 
     397 -134609.52847609 16812.284580842 -117797.24389525 -98249.327767639 -36360.200708453 467.65380771818 4153.2938684613       214589.13 0.37213336491546 
Loop time of 0.05984 on 1 procs for 1 steps with 1359 atoms

run 1 pre no post no
Step PotEng KinEng TotEng E_vdwl E_coul Press Temp Volume Density 
     397 -134609.52847609 16812.284580842 -117797.24389525 -98249.327767639 -36360.200708453 467.65380771818 4153.2938684613       214589.13 0.37213336491546 
     398 -134516.77515299 16750.111346421 -117766.66380657 -98197.691248548 -36319.083904446 -3361.264821232 4137.9346403884       214589.13 0.37213336491546 
Loop time of 0.05984 on 1 procs for 1 steps with 1359 atoms

run 1 pre no post no
Step PotEng KinEng TotEng E_vdwl E_coul Press Temp Volume Density 
     398 -134516.77515299 16750.111346421 -117766.66380657 -98197.691248548 -36319.083904446 -3361.264821232 4137.9346403884       214589.13 0.37213336491546 
     399 -134547.71086774  16806.77958391 -117740.93128383 -98256.33689641 -36291.373971332 -1981.4986525944 4151.9339182478       214589.13 0.37213336491546 
Loop time of 0.0578451 on 1 procs for 1 steps with 1359 atoms

run 1 pre no post no
Step PotEng KinEng TotEng E_vdwl E_coul Press Temp Volume Density 
     399 -134547.71086774  16806.77958391 -117740.93128383 -98256.33689641 -36291.373971332 -1981.4986525944 4151.9339182478       214589.13 0.37213336491546 
     400 -134607.38504803 16875.092301197 -117732.29274683 -98331.699435634 -36275.685612395 -1043.0346093344 4168.8098394518       214589.13 0.37213336491546 
Loop time of 0.069814 on 1 procs for 1 steps with 1359 atoms

run 1 pre no post no
Step PotEng KinEng TotEng E_vdwl E_coul Press Temp Volume Density 
     400 -134607.38504803 16875.092301197 -117732.29274683 -98331.699435634 -36275.685612395 -1043.0346093344 4168.8098394518       214589.13 0.37213336491546 
     401 -134598.23582923  16829.14918399 -117769.08664524 -98331.166893076 -36267.068936152 -2498.852667791 4157.4600870684       214589.13 0.37213336491546 
Loop time of 0.0598402 on 1 procs for 1 steps with 1359 atoms

run 1 pre no post no
Step PotEng KinEng TotEng E_vdwl E_coul Press Temp Volume Density 
     401 -134598.23582923  16829.14918399 -117769.08664524 -98331.166893076 -36267.068936152 -2498.852667791 4157.4600870684       214589.13 0.37213336491546 
     402 -134600.66795912 16810.151165312 -117790.51679381 -98334.078021704 -36266.589937415 -80.730830282679 4152.7668311277       214589.13 0.37213336491546 
Loop time of 0.0568471 on 1 procs for 1 steps with 1359 atoms

run 1 pre no post no
Step PotEng KinEng TotEng E_vdwl E_coul Press Temp Volume Density 
     402 -134600.66795912 16810.151165312 -117790.51679381 -98334.078021704 -36266.589937415 -80.730830282679 4152.7668311277       214589.13 0.37213336491546 
     403 -134455.62761741 16638.757830066 -117816.86978735 -98191.54718866 -36264.080428752 -179.6049571374 4110.4259532445       214589.13 0.37213336491546 
Loop time of 0.0578439 on 1 procs for 1 steps with 1359 atoms

run 1 pre no post no
Step PotEng KinEng TotEng E_vdwl E_coul Press Temp Volume Density 
     403 -134455.62761741 16638.757830066 -117816.86978735 -98191.54718866 -36264.080428752 -179.6049571374 4110.4259532445       214589.13 0.37213336491546 
     404 -134463.93256833 16656.864652076 -117807.06791626 -98206.410034446 -36257.522533885 -1612.9628885463  4114.899048645       214589.13 0.37213336491546 
Loop time of 0.0598388 on 1 procs for 1 steps with 1359 atoms

run 1 pre no post no
Step PotEng KinEng TotEng E_vdwl E_coul Press Temp Volume Density 
     404 -134463.93256833 16656.864652076 -117807.06791626 -98206.410034446 -36257.522533885 -1612.9628885463  4114.899048645       214589.13 0.37213336491546 
     405 -134519.63238396 16857.697191877 -117661.93519208 -98269.20223799 -36250.430145968 -752.80823385721 4164.5125650076       214589.13 0.37213336491546 
Loop time of 0.0578442 on 1 procs for 1 steps with 1359 atoms

run 1 pre no post no
Step PotEng KinEng TotEng E_vdwl E_coul Press Temp Volume Density 
     405 -134519.63238396 16857.697191877 -117661.93519208 -98269.20223799 -36250.430145968 -752.80823385721 4164.5125650076       214589.13 0.37213336491546 
     406 -134566.39498509 16989.265182153 -117577.12980294 -98324.572323084 -36241.822662005 -6.8485063844417 4197.0150202613       214589.13 0.37213336491546 
Loop time of 0.05984 on 1 procs for 1 steps with 1359 atoms

run 1 pre no post no
Step PotEng KinEng TotEng E_vdwl E_coul Press Temp Volume Density 
     406 -134566.39498509 16989.265182153 -117577.12980294 -98324.572323084 -36241.822662005 -6.8485063844417 4197.0150202613       214589.13 0.37213336491546 
     407 -134527.21705028 16967.170220523 -117560.04682976 -98292.654244862 -36234.56280542 1020.0414239854 4191.5566979124       214589.13 0.37213336491546 
Loop time of 0.0588422 on 1 procs for 1 steps with 1359 atoms

run 1 pre no post no
Step PotEng KinEng TotEng E_vdwl E_coul Press Temp Volume Density 
     407 -134527.21705028 16967.170220523 -117560.04682976 -98292.654244862 -36234.56280542 1020.0414239854 4191.5566979124       214589.13 0.37213336491546 
     408 -134401.15542801  16835.30563559 -117565.84979242 -98173.871769271 -36227.28365874  1178.392025358 4158.9809721426       214589.13 0.37213336491546 
Loop time of 0.0568471 on 1 procs for 1 steps with 1359 atoms

run 1 pre no post no
Step PotEng KinEng TotEng E_vdwl E_coul Press Temp Volume Density 
     408 -134401.15542801  16835.30563559 -117565.84979242 -98173.871769271 -36227.28365874  1178.392025358 4158.9809721426       214589.13 0.37213336491546 
     409 -134201.03007063 16634.951645224 -117566.07842541 -97988.899076008 -36212.130994626 -401.2779263436 4109.4856762649       214589.13 0.37213336491546 
Loop time of 0.05984 on 1 procs for 1 steps with 1359 atoms

run 1 pre no post no
Step PotEng KinEng TotEng E_vdwl E_coul Press Temp Volume Density 
     409 -134201.03007063 16634.951645224 -117566.07842541 -97988.899076008 -36212.130994626 -401.2779263436 4109.4856762649       214589.13 0.37213336491546 
     410 -134131.10198954 16549.470686116 -117581.63130343 -97941.182619825 -36189.919369718 -719.27132781507 4088.3685257893       214589.13 0.37213336491546 
Loop time of 0.072866 on 1 procs for 1 steps with 1359 atoms

run 1 pre no post no
Step PotEng KinEng TotEng E_vdwl E_coul Press Temp Volume Density 
     410 -134131.10198954 16549.470686116 -117581.63130343 -97941.182619825 -36189.919369718 -719.27132781507 4088.3685257893       214589.13 0.37213336491546 
     411 -133985.79070122 16440.038075256 -117545.75262597 -97824.160713435 -36161.629987787 -1878.1340292931 4061.3343776632       214589.13 0.37213336491546 
Loop time of 0.05984 on 1 procs for 1 steps with 1359 atoms

run 1 pre no post no
Step PotEng KinEng TotEng E_vdwl E_coul Press Temp Volume Density 
     411 -133985.79070122 16440.038075256 -117545.75262597 -97824.160713435 -36161.629987787 -1878.1340292931 4061.3343776632       214589.13 0.37213336491546 
     412 -134074.34180857 16522.830144222 -117551.51166435 -97935.152114712 -36139.189693856 -181.99459999498 4081.7872667836       214589.13 0.37213336491546 
Loop time of 0.0608661 on 1 procs for 1 steps with 1359 atoms

run 1 pre no post no
Step PotEng KinEng TotEng E_vdwl E_coul Press Temp Volume Density 
     412 -134074.34180857 16522.830144222 -117551.51166435 -97935.152114712 -36139.189693856 -181.99459999498 4081.7872667836       214589.13 0.37213336491546 
     413 -134142.64406582 16693.356698825 -117449.28736699 -98019.41397626 -36123.230089559 -43.016005863303 4123.9140158426       214589.13 0.37213336491546 
Loop time of 0.054883 on 1 procs for 1 steps with 1359 atoms

run 1 pre no post no
Step PotEng KinEng TotEng E_vdwl E_coul Press Temp Volume Density 
     413 -134142.64406582 16693.356698825 -117449.28736699 -98019.41397626 -36123.230089559 -43.016005863303 4123.9140158426       214589.13 0.37213336491546 
     414 -134202.48630674 16785.700476247 -117416.78583049 -98085.517626362 -36116.968680376 853.63240168781 4146.7265516828       214589.13 0.37213336491546 
Loop time of 0.0568199 on 1 procs for 1 steps with 1359 atoms

run 1 pre no post no
Step PotEng KinEng TotEng E_vdwl E_coul Press Temp Volume Density 
     414 -134202.48630674 16785.700476247 -117416.78583049 -98085.517626362 -36116.968680376 853.63240168781 4146.7265516828       214589.13 0.37213336491546 
     415 -134132.10526232  16856.57106539 -117275.53419693 -98018.849454049 -36113.255808274 -120.7200860441 4164.2343675852       214589.13 0.37213336491546 
Loop time of 0.0568478 on 1 procs for 1 steps with 1359 atoms

run 1 pre no post no
Step PotEng KinEng TotEng E_vdwl E_coul Press Temp Volume Density 
     415 -134132.10526232  16856.57106539 -117275.53419693 -98018.849454049 -36113.255808274 -120.7200860441 4164.2343675852       214589.13 0.37213336491546 
     416 -134278.02635342 16979.001218965 -117299.02513445 -98167.844947876 -36110.181405543  1599.419074447 4194.4794186796       214589.13 0.37213336491546 
Loop time of 0.0598421 on 1 procs for 1 steps with 1359 atoms

run 1 pre no post no
Step PotEng KinEng TotEng E_vdwl E_coul Press Temp Volume Density 
     416 -134278.02635342 16979.001218965 -117299.02513445 -98167.844947876 -36110.181405543  1599.419074447 4194.4794186796       214589.13 0.37213336491546 
     417 -134249.2482233 16923.792215052 -117325.45600825 -98144.803498299 -36104.444725005 10.854707712504 4180.8406287618       214589.13 0.37213336491546 
Loop time of 0.0573959 on 1 procs for 1 steps with 1359 atoms

run 1 pre no post no
Step PotEng KinEng TotEng E_vdwl E_coul Press Temp Volume Density 
     417 -134249.2482233 16923.792215052 -117325.45600825 -98144.803498299 -36104.444725005 10.854707712504 4180.8406287618       214589.13 0.37213336491546 
     418 -134057.89713507 16759.694498704 -117298.20263637 -97962.039550704 -36095.85758437 -1179.2023258564  4140.302054967       214589.13 0.37213336491546 
Loop time of 0.055851 on 1 procs for 1 steps with 1359 atoms

run 1 pre no post no
Step PotEng KinEng TotEng E_vdwl E_coul Press Temp Volume Density 
     418 -134057.89713507 16759.694498704 -117298.20263637 -97962.039550704 -36095.85758437 -1179.2023258564  4140.302054967       214589.13 0.37213336491546 
     419 -133941.3887431 16740.216220882 -117201.17252221 -97851.383836591 -36090.004906505 -2436.2427963195 4135.4901561762       214589.13 0.37213336491546 
Loop time of 0.0558519 on 1 procs for 1 steps with 1359 atoms

run 1 pre no post no
Step PotEng KinEng TotEng E_vdwl E_coul Press Temp Volume Density 
     419 -133941.3887431 16740.216220882 -117201.17252221 -97851.383836591 -36090.004906505 -2436.2427963195 4135.4901561762       214589.13 0.37213336491546 
     420 -133996.11208807 16880.534026224 -117115.57806185 -97901.322317951 -36094.789770119 -2149.2425501686 4170.1541590225       214589.13 0.37213336491546 
Loop time of 0.0667942 on 1 procs for 1 steps with 1359 atoms

run 1 pre no post no
Step PotEng KinEng TotEng E_vdwl E_coul Press Temp Volume Density 
     420 -133996.11208807 16880.534026224 -117115.57806185 -97901.322317951 -36094.789770119 -2149.2425501686 4170.1541590225       214589.13 0.37213336491546 
     421 -134161.81545703  17190.84690636 -116970.96855067 -98046.987887355 -36114.827569674 -1153.1133087003 4246.8136145638       214589.13 0.37213336491546 
Loop time of 0.0548539 on 1 procs for 1 steps with 1359 atoms

run 1 pre no post no
Step PotEng KinEng TotEng E_vdwl E_coul Press Temp Volume Density 
     421 -134161.81545703  17190.84690636 -116970.96855067 -98046.987887355 -36114.827569674 -1153.1133087003 4246.8136145638       214589.13 0.37213336491546 
     422 -134160.69511408 17377.905829247 -116782.78928483 -98007.675792193 -36153.019321886 -213.88115283137 4293.0245071842       214589.13 0.37213336491546 
Loop time of 0.0568759 on 1 procs for 1 steps with 1359 atoms

run 1 pre no post no
Step PotEng KinEng TotEng E_vdwl E_coul Press Temp Volume Density 
     422 -134160.69511408 17377.905829247 -116782.78928483 -98007.675792193 -36153.019321886 -213.88115283137 4293.0245071842       214589.13 0.37213336491546 
     423 -134078.68999361 17405.427047053 -116673.26294655 -97871.464306991 -36207.225686617 434.21051431941 4299.8233276906       214589.13 0.37213336491546 
Loop time of 0.055851 on 1 procs for 1 steps with 1359 atoms

run 1 pre no post no
Step PotEng KinEng TotEng E_vdwl E_coul Press Temp Volume Density 
     423 -134078.68999361 17405.427047053 -116673.26294655 -97871.464306991 -36207.225686617 434.21051431941 4299.8233276906       214589.13 0.37213336491546 
     424 -133918.1332795 17329.471701984 -116588.66157751 -97647.738150534 -36270.395128962 1724.5480209618 4281.0593775899       214589.13 0.37213336491546 
Loop time of 0.0548968 on 1 procs for 1 steps with 1359 atoms

run 1 pre no post no
Step PotEng KinEng TotEng E_vdwl E_coul Press Temp Volume Density 
     424 -133918.1332795 17329.471701984 -116588.66157751 -97647.738150534 -36270.395128962 1724.5480209618 4281.0593775899       214589.13 0.37213336491546 
     425 -133823.19983282 17242.796327488 -116580.40350534 -97492.217349035 -36330.982483787 3335.6038369521 4259.6471596542       214589.13 0.37213336491546 
Loop time of 0.057337 on 1 procs for 1 steps with 1359 atoms

run 1 pre no post no
Step PotEng KinEng TotEng E_vdwl E_coul Press Temp Volume Density 
     425 -133823.19983282 17242.796327488 -116580.40350534 -97492.217349035 -36330.982483787 3335.6038369521 4259.6471596542       214589.13 0.37213336491546 
     426 -133658.84083418 17221.485398081 -116437.3554361 -97290.092404501 -36368.748429675 5006.7082710641 4254.3825240235       214589.13 0.37213336491546 
Loop time of 0.055877 on 1 procs for 1 steps with 1359 atoms

run 1 pre no post no
Step PotEng KinEng TotEng E_vdwl E_coul Press Temp Volume Density 
     426 -133658.84083418 17221.485398081 -116437.3554361 -97290.092404501 -36368.748429675 5006.7082710641 4254.3825240235       214589.13 0.37213336491546 
     427 -133680.43669845 17313.576401223 -116366.86029723 -97305.419803699 -36375.016894753 3578.0660891486 4277.1326146998       214589.13 0.37213336491546 
Loop time of 0.0568478 on 1 procs for 1 steps with 1359 atoms

run 1 pre no post no
Step PotEng KinEng TotEng E_vdwl E_coul Press Temp Volume Density 
     427 -133680.43669845 17313.576401223 -116366.86029723 -97305.419803699 -36375.016894753 3578.0660891486 4277.1326146998       214589.13 0.37213336491546 
     428 -133784.66749382  17376.57420537 -116408.09328845 -97428.254461555 -36356.413032264 3357.4299835896 4292.6955438446       214589.13 0.37213336491546 
Loop time of 0.05582 on 1 procs for 1 steps with 1359 atoms

run 1 pre no post no
Step PotEng KinEng TotEng E_vdwl E_coul Press Temp Volume Density 
     428 -133784.66749382  17376.57420537 -116408.09328845 -97428.254461555 -36356.413032264 3357.4299835896 4292.6955438446       214589.13 0.37213336491546 
     429 -133772.84337478 17334.016737434 -116438.82663734 -97454.565425106 -36318.277949672 1368.5511303613 4282.1821796563       214589.13 0.37213336491546 
Loop time of 0.059809 on 1 procs for 1 steps with 1359 atoms

run 1 pre no post no
Step PotEng KinEng TotEng E_vdwl E_coul Press Temp Volume Density 
     429 -133772.84337478 17334.016737434 -116438.82663734 -97454.565425106 -36318.277949672 1368.5511303613 4282.1821796563       214589.13 0.37213336491546 
     430 -133847.61967478 17384.313598898 -116463.30607589 -97572.204018029 -36275.415656754 -1141.8284451963 4294.6074776767       214589.13 0.37213336491546 
Loop time of 0.0678189 on 1 procs for 1 steps with 1359 atoms

run 1 pre no post no
Step PotEng KinEng TotEng E_vdwl E_coul Press Temp Volume Density 
     430 -133847.61967478 17384.313598898 -116463.30607589 -97572.204018029 -36275.415656754 -1141.8284451963 4294.6074776767       214589.13 0.37213336491546 
     431 -134030.91978087 17452.451874622 -116578.46790625 -97787.572512908 -36243.347267961 -567.78801172925  4311.440304971       214589.13 0.37213336491546 
Loop time of 0.061837 on 1 procs for 1 steps with 1359 atoms

run 1 pre no post no
Step PotEng KinEng TotEng E_vdwl E_coul Press Temp Volume Density 
     431 -134030.91978087 17452.451874622 -116578.46790625 -97787.572512908 -36243.347267961 -567.78801172925  4311.440304971       214589.13 0.37213336491546 
     432 -134198.07306272  17661.28739643 -116536.78566629 -97980.218938852 -36217.854123868 -2191.6283361993 4363.0308718609       214589.13 0.37213336491546 
Loop time of 0.0568771 on 1 procs for 1 steps with 1359 atoms

run 1 pre no post no
Step PotEng KinEng TotEng E_vdwl E_coul Press Temp Volume Density 
     432 -134198.07306272  17661.28739643 -116536.78566629 -97980.218938852 -36217.854123868 -2191.6283361993 4363.0308718609       214589.13 0.37213336491546 
     433 -134372.81686972  17937.41661955 -116435.40025017 -98165.584351854 -36207.232517862 -1978.7969890099 4431.2456230312       214589.13 0.37213336491546 
Loop time of 0.0563869 on 1 procs for 1 steps with 1359 atoms

run 1 pre no post no
Step PotEng KinEng TotEng E_vdwl E_coul Press Temp Volume Density 
     433 -134372.81686972  17937.41661955 -116435.40025017 -98165.584351854 -36207.232517862 -1978.7969890099 4431.2456230312       214589.13 0.37213336491546 
     434 -134391.85598172 17989.239558052 -116402.61642367 -98173.997840825 -36217.858140898 -4562.1759949377  4444.047921951       214589.13 0.37213336491546 
Loop time of 0.055851 on 1 procs for 1 steps with 1359 atoms


Please see the log.cite file for references relevant to this simulation

Total wall time: 0:00:36
